begin
comment  i =    10860, time =     5430.000, E =       -55.9136749301
lattice   1.3457659000000000E+01   0.0000000000000000E+00   0.0000000000000000E+00
lattice  -6.7288300000000003E+00   1.1654674999999999E+01   0.0000000000000000E+00
lattice   0.0000000000000000E+00   0.0000000000000000E+00   1.0806922999999999E+01
atom  -3.8928900000000111E-01   8.8695489999999992E+00   6.2823969999999987E+00 Mg   0.0000000000000000E+00   0.0000000000000000E+00   6.7679999999999997E-03   7.1900000000000002E-03  -1.8350000000000000E-03
atom   1.0143970999999999E+01   2.5220300000000306E-01   2.7673749999999995E+00 Mg   0.0000000000000000E+00   0.0000000000000000E+00  -1.1950000000000001E-02   1.5488000000000000E-02   3.2330000000000002E-03
atom  -2.1119399999999984E+00   6.5565660000000001E+00   8.4095129999999987E+00 Mg   0.0000000000000000E+00   0.0000000000000000E+00  -1.1228999999999999E-02  -1.4833000000000001E-02   9.7409999999999997E-03
atom   7.0169720000000018E+00   3.6869890000000001E+00   2.0093899999999976E+00 Mg   0.0000000000000000E+00   0.0000000000000000E+00   5.3200000000000001E-03   1.3018000000000000E-02   1.1124000000000000E-02
atom   2.7419600000000002E+00   3.1643050000000001E+00   8.8543970000000005E+00 Mg   0.0000000000000000E+00   0.0000000000000000E+00   5.3550000000000004E-03   2.7141999999999999E-02  -1.8074000000000000E-02
atom   1.4207770000000004E+00   4.8415000000000252E-01   8.7278050000000018E+00 Mg   0.0000000000000000E+00   0.0000000000000000E+00  -1.0790000000000001E-03  -1.3910000000000001E-03  -7.6880000000000004E-03
atom  -6.5729499999999641E-01   8.2652370000000008E+00   6.8112800000000000E+00 Mg   0.0000000000000000E+00   0.0000000000000000E+00  -1.2678000000000000E-02   4.4759999999999999E-03  -8.6890000000000005E-03
atom  -4.8593740000000016E+00   1.0501837999999999E+01   1.0603097999999997E+01 Mg   0.0000000000000000E+00   0.0000000000000000E+00  -6.9999999999999999E-04  -1.6572000000000000E-02   1.6240000000000001E-02
atom   9.5238329999999980E+00   5.6624030000000003E+00   3.7770169999999994E+00 Mg   0.0000000000000000E+00   0.0000000000000000E+00   1.5959000000000001E-02  -1.7587999999999999E-02  -1.1469999999999999E-02
atom   2.6018240000000006E+00   6.6304239999999997E+00   1.0576430000000001E+00 Mg   0.0000000000000000E+00   0.0000000000000000E+00  -1.4265999999999999E-02  -4.0940000000000004E-03   6.5630000000000003E-03
atom   2.4542120000000009E+00   1.9859200000000006E+00   4.3829019999999996E+00 Mg   0.0000000000000000E+00   0.0000000000000000E+00  -2.1583000000000001E-02   8.2360000000000003E-03  -2.1240000000000000E-03
atom   6.0197350000000007E+00   1.0423430000000000E+01   8.5005199999999981E+00 Mg   0.0000000000000000E+00   0.0000000000000000E+00  -1.4361000000000001E-02  -3.2469999999999999E-03   6.7000000000000002E-03
atom   5.0296709999999996E+00   5.8357500000000484E-01   2.7824099999999996E+00 Mg   0.0000000000000000E+00   0.0000000000000000E+00   7.3899999999999999E-03   8.8800000000000001E-04  -2.1389999999999998E-03
atom  -4.2210719999999977E+00   8.6806339999999995E+00   6.0597770000000013E+00 Mg   0.0000000000000000E+00   0.0000000000000000E+00  -1.2552000000000001E-02  -7.7879999999999998E-03  -1.0274000000000000E-02
atom   1.1905466000000004E+01   1.6892760000000029E+00   4.7247440000000003E+00 Mg   0.0000000000000000E+00   0.0000000000000000E+00  -1.1887000000000000E-02  -1.1861999999999999E-02  -1.4119000000000000E-02
atom   2.9575220000000000E+00   4.5897550000000011E+00   3.5047959999999980E+00 Mg   0.0000000000000000E+00   0.0000000000000000E+00   7.4330000000000004E-03  -4.0299999999999998E-04  -4.6470000000000001E-03
atom   4.8859669999999991E+00   9.1219900000000038E+00   3.0383429999999993E+00 Mg   0.0000000000000000E+00   0.0000000000000000E+00   4.6480000000000002E-03   3.9890000000000004E-03  -6.4809999999999998E-03
atom   1.0733302999999998E+01   2.9763530000000000E+00   6.0747299999999980E+00 Mg   0.0000000000000000E+00   0.0000000000000000E+00   3.3180000000000002E-03   7.8180000000000003E-03   2.0130000000000000E-03
atom   5.2432780000000010E+00   4.6305670000000010E+00   9.7844099999999994E+00 Mg   0.0000000000000000E+00   0.0000000000000000E+00  -1.0628000000000000E-02   3.2829999999999999E-03   1.4753000000000000E-02
atom   7.9936369999999997E+00   7.2754180000000011E+00   6.0148169999999990E+00 Mg   0.0000000000000000E+00   0.0000000000000000E+00  -6.8989999999999998E-03  -1.7740000000000000E-03   1.7380000000000000E-03
atom   1.6272329999999988E+00   3.2807580000000023E+00   9.6145219999999991E+00 Mg   0.0000000000000000E+00   0.0000000000000000E+00  -1.3488000000000000E-02   1.3436000000000000E-02   5.7180000000000000E-03
atom   2.8760000000001576E-02   1.0285523000000000E+01   1.0296609999999999E+00 Mg   0.0000000000000000E+00   0.0000000000000000E+00  -6.5940000000000000E-03   6.1939999999999999E-03   1.3982000000000000E-02
atom   3.9687390000000078E+00   3.4137770000000023E+00   7.8136749999999990E+00 Mg   0.0000000000000000E+00   0.0000000000000000E+00  -4.3059999999999999E-03   2.8219999999999999E-03  -4.8320000000000004E-03
atom   1.0476171000000001E+01   1.9993250000000011E+00   9.0085560000000005E+00 Mg   0.0000000000000000E+00   0.0000000000000000E+00   1.6920999999999999E-02  -1.9369000000000001E-02  -9.4970000000000002E-03
atom   5.0987199999999744E-01   1.0089105000000004E+01   7.0478119999999995E+00 Mg   0.0000000000000000E+00   0.0000000000000000E+00  -5.4159999999999998E-03  -8.2100000000000001E-04   4.4770000000000001E-03
atom   3.0765569999999993E+00   1.1199066000000002E+01   8.2908679999999979E+00 Mg   0.0000000000000000E+00   0.0000000000000000E+00   7.3150000000000003E-03   9.3089999999999996E-03  -9.8429999999999993E-03
atom  -5.3999290000000011E+00   1.0971759000000000E+01   5.8587090000000011E+00 Mg   0.0000000000000000E+00   0.0000000000000000E+00  -7.0399999999999998E-04   2.0119999999999999E-03   1.1410000000000001E-03
atom   1.0103264000000001E+01   5.1383430000000017E+00   6.7698539999999996E+00 Mg   0.0000000000000000E+00   0.0000000000000000E+00   7.3499999999999998E-03  -4.2550000000000001E-03  -1.9243000000000000E-02
atom  -1.4445669999999993E+00   3.6491980000000011E+00   2.0638749999999999E+00 Mg   0.0000000000000000E+00   0.0000000000000000E+00   1.1167000000000000E-02  -9.9419999999999994E-03   3.7230000000000002E-03
atom   8.9755589999999987E+00   3.4284610000000018E+00   8.7266100000000046E-01 Mg   0.0000000000000000E+00   0.0000000000000000E+00   1.0199000000000000E-02  -8.0099999999999998E-03  -1.3250000000000000E-03
atom  -1.1634670000000011E+00   1.1326901000000003E+01   2.4289749999999994E+00 Mg   0.0000000000000000E+00   0.0000000000000000E+00  -8.5880000000000001E-03   4.5160000000000000E-03  -7.0100000000000002E-04
atom   6.2492860000000006E+00   5.9696049999999987E+00   8.4906959999999980E+00 Mg   0.0000000000000000E+00   0.0000000000000000E+00  -2.9520000000000002E-03   3.7919999999999998E-03  -1.7765000000000000E-02
atom  -2.1503359999999989E+00   1.0724177999999998E+01   9.5700499999999977E-01 Mg   0.0000000000000000E+00   0.0000000000000000E+00  -2.7569999999999999E-03  -2.6370000000000000E-03  -5.2410000000000000E-03
atom   1.2042330000000001E+00   9.8499299999999987E+00   5.0898309999999976E+00 Mg   0.0000000000000000E+00   0.0000000000000000E+00   7.3099999999999999E-04  -2.0850000000000000E-03   1.0447000000000000E-02
atom   6.6475540000000004E+00   1.0101559000000000E+01   3.2646439999999992E+00 Mg   0.0000000000000000E+00   0.0000000000000000E+00   3.1849999999999999E-03   7.1299999999999998E-04  -1.1230000000000001E-03
atom  -2.1954850000000001E+00   8.2439479999999996E+00   9.7953709999999994E+00 Mg   0.0000000000000000E+00   0.0000000000000000E+00   1.1124999999999999E-02   1.7668000000000000E-02   3.9670000000000000E-03
atom  -1.0559759999999989E+00   7.8012439999999987E+00   6.9424479999999988E+00 Mg   0.0000000000000000E+00   0.0000000000000000E+00   4.6249999999999998E-03   1.1294000000000000E-02  -1.2057999999999999E-02
atom   3.8578510000000024E+00   7.9931579999999984E+00   7.4189999999999104E-02 Mg   0.0000000000000000E+00   0.0000000000000000E+00  -1.3743999999999999E-02  -7.5129999999999997E-03  -3.6110000000000001E-03
atom   7.9239920000000046E+00   6.4166509999999999E+00   1.0699166999999999E+01 Mg   0.0000000000000000E+00   0.0000000000000000E+00   6.3500000000000004E-04  -4.2350000000000000E-03  -1.2890000000000000E-03
atom   6.7349400000000825E-01   6.8104579999999997E+00   5.2908269999999993E+00 Mg   0.0000000000000000E+00   0.0000000000000000E+00   6.2440000000000004E-03  -5.0330000000000001E-03  -1.1908999999999999E-02
atom   3.5956200000000010E-01   2.1234730000000002E+00   3.3299999999990030E-03 Mg   0.0000000000000000E+00   0.0000000000000000E+00  -9.9780000000000008E-03   1.6348000000000001E-02  -1.2170000000000000E-03
atom   7.3011660000000020E+00   5.2305200000000003E+00   7.6346840000000009E+00 Mg   0.0000000000000000E+00   0.0000000000000000E+00   3.1749999999999999E-03   2.7859999999999998E-03  -2.7130000000000001E-03
atom  -2.3407740000000001E+00   5.4948500000000022E+00   9.7405039999999978E+00 Mg   0.0000000000000000E+00   0.0000000000000000E+00  -9.0399999999999996E-04   3.1480000000000002E-03   1.6445000000000001E-02
atom   3.6324650000000012E+00   7.6194340000000000E+00   3.9730759999999998E+00 Mg   0.0000000000000000E+00   0.0000000000000000E+00  -1.2484000000000000E-02   6.5319999999999996E-03   1.5460000000000001E-03
atom   8.8914089999999995E+00   8.5841900000000282E-01   6.4748329999999994E+00 Mg   0.0000000000000000E+00   0.0000000000000000E+00   5.3340000000000002E-03  -4.4939999999999997E-03   4.6249999999999998E-03
atom   7.2446189999999993E+00   8.3249820000000003E+00   2.6935910000000001E+00 Mg   0.0000000000000000E+00   0.0000000000000000E+00   9.3200000000000002E-03  -1.2057000000000000E-02  -8.7240000000000009E-03
atom   1.2177922000000001E+01   2.0126300000000001E+00   6.2586629999999976E+00 Mg   0.0000000000000000E+00   0.0000000000000000E+00   3.6299999999999999E-04   1.4980000000000000E-03   7.0829999999999999E-03
atom   1.9015000000000304E-01   1.0614099999999999E+01   6.4468620000000012E+00 Mg   0.0000000000000000E+00   0.0000000000000000E+00   7.9150000000000002E-03   1.2270000000000000E-03  -6.8970000000000004E-03
atom   4.6651779999999983E+00   9.8629060000000006E+00   2.9888399999999976E-01 Mg   0.0000000000000000E+00   0.0000000000000000E+00  -5.1359999999999999E-03  -4.4380000000000001E-03   8.3940000000000004E-03
atom   4.2296180000000003E+00   1.9622050000000015E+00   3.6426319999999999E+00 Mg   0.0000000000000000E+00   0.0000000000000000E+00  -1.1452000000000000E-02   1.4037000000000001E-02   1.1230000000000000E-02
atom   4.4527400000000045E-01   1.0036517999999999E+01   8.2433400000000046E-01 Mg   0.0000000000000000E+00   0.0000000000000000E+00   1.1096000000000000E-02  -1.4919999999999999E-02  -9.7199999999999999E-04
atom   4.2417279999999984E+00   9.4681029999999993E+00   1.9416419999999979E+00 Mg   0.0000000000000000E+00   0.0000000000000000E+00   2.8400000000000002E-04  -5.5560000000000002E-03   1.7409999999999998E-02
atom   2.3652779999999995E+00   1.1460060000000012E+00   9.6075590000000002E+00 Mg   0.0000000000000000E+00   0.0000000000000000E+00   5.8929999999999998E-03  -2.6220000000000002E-03  -1.0621999999999999E-02
atom   5.8826349999999987E+00   4.3726140000000022E+00   6.9369820000000004E+00 Mg   0.0000000000000000E+00   0.0000000000000000E+00  -1.1826000000000000E-02   4.8529999999999997E-03  -1.3055000000000001E-02
atom  -3.3838399999999963E-01   1.1117823000000000E+01   6.9788189999999988E+00 Mg   0.0000000000000000E+00   0.0000000000000000E+00   4.9969999999999997E-03   2.3909000000000000E-02  -3.3880000000000000E-03
atom   3.9630080000000052E+00   7.0914370000000000E+00   8.7085919999999994E+00 Mg   0.0000000000000000E+00   0.0000000000000000E+00   1.2678999999999999E-02  -5.7879999999999997E-03   4.6200000000000000E-03
atom  -2.0308230000000003E+00   4.2367190000000008E+00   1.1038669999999995E+00 Mg   0.0000000000000000E+00   0.0000000000000000E+00   1.0773000000000000E-02  -1.3549000000000000E-02   1.6920999999999999E-02
atom   4.8125259999999983E+00   8.2230600000000020E+00   1.0385323000000000E+01 Mg   0.0000000000000000E+00   0.0000000000000000E+00  -4.8399999999999997E-03   1.2600000000000000E-04  -3.3950000000000000E-03
atom  -2.7758410000000002E+00   1.1218786000000000E+01   8.5526199999999997E-01 Mg   0.0000000000000000E+00   0.0000000000000000E+00   2.3699999999999999E-04  -7.9600000000000005E-04   1.7350999999999998E-02
atom  -3.9828599999999975E-01   4.5475110000000036E+00   4.6847190000000003E+00 Mg   0.0000000000000000E+00   0.0000000000000000E+00   1.5330999999999999E-02  -5.9350000000000002E-03  -5.8269999999999997E-03
atom   4.9736750000000001E+00   3.7944800000000010E+00   5.1956860000000002E+00 Mg   0.0000000000000000E+00   0.0000000000000000E+00   5.6530000000000000E-03  -3.0190000000000000E-03  -6.7050000000000000E-03
atom   5.2846459999999986E+00   1.6633370000000018E+00   2.1734009999999988E+00 Mg   0.0000000000000000E+00   0.0000000000000000E+00   5.8100000000000003E-04  -1.1532000000000001E-02   7.2170000000000003E-03
atom   6.7318220000000029E+00   4.1816700000000013E+00   1.4421929999999967E+00 Mg   0.0000000000000000E+00   0.0000000000000000E+00   9.5399999999999999E-03   1.2030000000000001E-03   1.7002000000000000E-02
atom   1.9102400000000024E+00   1.7083100000000462E-01   6.5323399999999969E+00 Mg   0.0000000000000000E+00   0.0000000000000000E+00   6.1250000000000002E-03  -1.0795000000000001E-02   4.0910000000000000E-03
energy  -5.5913674999999998E+01
charge   0.0000000000000000E+00
end
begin
comment  i =    10110, time =     5055.000, E =       -55.8958109425
lattice   1.3554667999999999E+01   0.0000000000000000E+00   0.0000000000000000E+00
lattice  -6.7773339999999997E+00   1.1738686000000000E+01   0.0000000000000000E+00
lattice   0.0000000000000000E+00   0.0000000000000000E+00   1.0884824000000000E+01
atom   6.3091999999999948E-01   9.0405599999999993E+00   6.5799979999999998E+00 Mg   0.0000000000000000E+00   0.0000000000000000E+00   2.2599999999999999E-04  -1.7746999999999999E-02  -3.5690000000000001E-03
atom   1.2263281000000001E+01   2.8308500000000059E-01   3.6928189999999996E+00 Mg   0.0000000000000000E+00   0.0000000000000000E+00  -8.5810000000000001E-03  -1.1643000000000001E-02   2.4427999999999998E-02
atom  -3.5078339999999959E+00   8.8437420000000007E+00   6.8597890000000001E+00 Mg   0.0000000000000000E+00   0.0000000000000000E+00  -5.0350000000000004E-03   1.9050000000000000E-03   2.7590000000000002E-03
atom  -8.9526199999999811E-01   2.6610710000000002E+00   1.0574589999999984E+00 Mg   0.0000000000000000E+00   0.0000000000000000E+00  -3.1809999999999998E-03   1.6100000000000001E-03   1.6739999999999999E-03
atom   1.6498990000000016E+00   3.3203049999999998E+00   6.4348519999999994E+00 Mg   0.0000000000000000E+00   0.0000000000000000E+00   3.4610000000000001E-03  -1.6990000000000000E-03   3.4520000000000002E-03
atom   9.1210699999999989E-01   1.0067500000000000E+00   9.1449799999999986E+00 Mg   0.0000000000000000E+00   0.0000000000000000E+00   1.3010000000000001E-02  -7.4560000000000000E-03  -3.2841000000000002E-02
atom  -1.4709499999999982E+00   9.3838030000000003E+00   7.7500879999999999E+00 Mg   0.0000000000000000E+00   0.0000000000000000E+00  -8.6630000000000006E-03  -1.0581000000000000E-02  -6.8240000000000002E-03
atom  -4.1747489999999967E+00   9.9418579999999981E+00   2.7154500000000031E-01 Mg   0.0000000000000000E+00   0.0000000000000000E+00  -9.1299999999999992E-03  -8.6940000000000003E-03   5.4879999999999998E-03
atom   1.0875556000000000E+01   4.0312630000000000E+00   3.4178169999999994E+00 Mg   0.0000000000000000E+00   0.0000000000000000E+00  -7.2800000000000000E-03   1.1906999999999999E-02  -1.4267000000000000E-02
atom   2.0798970000000003E+00   3.9262169999999998E+00   1.0578927000000000E+01 Mg   0.0000000000000000E+00   0.0000000000000000E+00  -1.1920000000000000E-02   1.2200000000000001E-02   3.0799000000000000E-02
atom   2.8737390000000027E+00   5.1717300000000019E+00   4.2993620000000004E+00 Mg   0.0000000000000000E+00   0.0000000000000000E+00  -1.6029000000000002E-02  -1.1500000000000000E-04   4.9659999999999999E-03
atom   1.1431566000000000E+01   5.8594500000000016E-01   9.1160029999999974E+00 Mg   0.0000000000000000E+00   0.0000000000000000E+00   1.8748999999999998E-02  -1.2364000000000000E-02   3.8720000000000000E-03
atom   6.1703030000000032E+00   1.1870100000000004E-01   1.4000850000000000E+00 Mg   0.0000000000000000E+00   0.0000000000000000E+00   6.4830000000000000E-03  -9.3830000000000007E-03   9.0010000000000003E-03
atom   4.6376220000000004E+00   7.4442970000000006E+00   4.6740420000000000E+00 Mg   0.0000000000000000E+00   0.0000000000000000E+00  -8.9660000000000000E-03   1.8380000000000000E-03  -7.2389999999999998E-03
atom  -9.2665599999999582E-01   2.1588719999999992E+00   2.6323319999999999E+00 Mg   0.0000000000000000E+00   0.0000000000000000E+00  -5.2370000000000003E-03  -1.3280000000000000E-03   1.8873999999999998E-02
atom   5.9629250000000020E+00   2.0636239999999999E+00   1.5012010000000007E+00 Mg   0.0000000000000000E+00   0.0000000000000000E+00  -3.1530000000000000E-03   1.6508999999999999E-02   2.2989999999999998E-03
atom   5.3290029999999984E+00   7.4618580000000021E+00   3.3379740000000000E+00 Mg   0.0000000000000000E+00   0.0000000000000000E+00   5.3369999999999997E-03   8.4999999999999995E-04   4.8000000000000001E-04
atom   1.0442811999999998E+01   4.2473010000000002E+00   6.2765819999999986E+00 Mg   0.0000000000000000E+00   0.0000000000000000E+00   1.0499999999999999E-03  -1.0418000000000000E-02   8.7440000000000000E-03
atom   6.3814169999999990E+00   1.5426810000000011E+00   1.5406079999999998E+00 Mg   0.0000000000000000E+00   0.0000000000000000E+00  -6.1749999999999999E-03  -1.5479999999999999E-03  -1.2669999999999999E-03
atom   7.3219190000000003E+00   6.8392560000000016E+00   8.0070510000000006E+00 Mg   0.0000000000000000E+00   0.0000000000000000E+00  -2.6010000000000000E-03  -4.0710000000000000E-03  -6.0089999999999996E-03
atom   1.6108069999999990E+00   5.4304269999999999E+00   1.0277441000000000E+01 Mg   0.0000000000000000E+00   0.0000000000000000E+00  -8.9789999999999991E-03   3.2410000000000000E-03  -1.7677999999999999E-02
atom   6.0280470000000026E+00   9.5706200000000041E-01   2.2777479999999999E+00 Mg   0.0000000000000000E+00   0.0000000000000000E+00  -1.6650000000000002E-02  -5.3740000000000003E-03  -1.5089999999999999E-03
atom   3.9696590000000045E+00   4.4033180000000014E+00   9.9720040000000001E+00 Mg   0.0000000000000000E+00   0.0000000000000000E+00  -7.2690000000000003E-03   2.3942999999999999E-02   2.1189999999999998E-03
atom   8.6762499999999996E+00   1.4433179999999997E+00   8.7770410000000005E+00 Mg   0.0000000000000000E+00   0.0000000000000000E+00   1.8037000000000001E-02   1.0819000000000000E-02  -1.0181000000000001E-02
atom   9.9353699999999912E-01   9.0019550000000006E+00   6.9505560000000006E+00 Mg   0.0000000000000000E+00   0.0000000000000000E+00   3.0720000000000001E-03  -3.1350000000000002E-03   9.9520000000000008E-03
atom   9.7169370000000015E+00   1.0154009999999989E+00   7.8814349999999997E+00 Mg   0.0000000000000000E+00   0.0000000000000000E+00   7.2589999999999998E-03   7.7499999999999997E-04  -1.6528999999999999E-02
atom   2.4070089999999968E+00   1.7362800000000059E-01   6.7703699999999998E+00 Mg   0.0000000000000000E+00   0.0000000000000000E+00   1.2393000000000000E-02   7.5119999999999996E-03  -4.2700000000000004E-03
atom  -2.5788199999999981E+00   5.5474000000000023E+00   6.7801410000000004E+00 Mg   0.0000000000000000E+00   0.0000000000000000E+00  -3.8449999999999999E-03   6.2960000000000004E-03  -1.5372000000000000E-02
atom  -1.0240769999999997E+00   4.5422069999999986E+00   2.0410390000000000E+00 Mg   0.0000000000000000E+00   0.0000000000000000E+00  -1.6188999999999999E-02  -5.2900000000000004E-03  -2.4689999999999998E-03
atom   7.7904480000000005E+00   2.4240600000000017E+00   1.4550929999999995E+00 Mg   0.0000000000000000E+00   0.0000000000000000E+00  -7.8329999999999997E-03  -2.6419999999999998E-03   1.4973000000000000E-02
atom  -1.8809519999999991E+00   1.0146917000000000E+01   2.1272500000000001E+00 Mg   0.0000000000000000E+00   0.0000000000000000E+00   2.2239999999999998E-03   2.7870000000000000E-03   2.4659999999999999E-03
atom   6.5103790000000021E+00   7.6141419999999984E+00   8.1923569999999994E+00 Mg   0.0000000000000000E+00   0.0000000000000000E+00   1.1793000000000000E-02  -1.4515000000000000E-02   7.3350000000000004E-03
atom   5.3609760000000000E+00   1.0401160000000000E+00   8.6786500000000011E-01 Mg   0.0000000000000000E+00   0.0000000000000000E+00  -5.8659999999999997E-03  -2.2390000000000000E-02   1.2217000000000000E-02
atom   8.6785290000000010E+00   4.8900699999999997E-01   5.7292989999999993E+00 Mg   0.0000000000000000E+00   0.0000000000000000E+00   4.0499999999999998E-03  -6.6709999999999998E-03  -7.2269999999999999E-03
atom   6.8837650000000021E+00   9.9346709999999998E+00   3.1468419999999986E+00 Mg   0.0000000000000000E+00   0.0000000000000000E+00   1.2589999999999999E-03  -8.9770000000000006E-03  -6.6439999999999997E-03
atom   7.7642000000000433E-02   6.9919369999999992E+00   8.3241479999999992E+00 Mg   0.0000000000000000E+00   0.0000000000000000E+00   7.2859999999999999E-03   1.2352000000000000E-02   1.0460000000000001E-03
atom  -9.6317999999999140E-02   8.7428349999999995E+00   6.9183360000000000E+00 Mg   0.0000000000000000E+00   0.0000000000000000E+00  -7.6810000000000003E-03  -3.4020000000000001E-03  -2.0500000000000002E-03
atom   3.6737920000000028E+00   7.9604520000000001E+00   9.5007899999999934E-01 Mg   0.0000000000000000E+00   0.0000000000000000E+00  -6.9210000000000001E-03   1.0910000000000000E-02  -2.7000000000000000E-04
atom   8.0390970000000035E+00   6.2517139999999998E+00   8.1912509999999994E+00 Mg   0.0000000000000000E+00   0.0000000000000000E+00  -1.9510000000000000E-02   4.2690000000000002E-03  -3.1790000000000000E-03
atom   9.2048700000000050E-01   4.6408050000000003E+00   4.4162739999999987E+00 Mg   0.0000000000000000E+00   0.0000000000000000E+00   4.7619999999999997E-03   6.9569999999999996E-03  -1.8026000000000000E-02
atom  -8.9869699999999997E-01   3.1639200000000001E+00   5.3832799999999836E-01 Mg   0.0000000000000000E+00   0.0000000000000000E+00   1.5268000000000000E-02  -6.5799999999999999E-03  -1.0957000000000000E-02
atom   7.1255819999999996E+00   5.8119550000000002E+00   6.8781340000000002E+00 Mg   0.0000000000000000E+00   0.0000000000000000E+00   1.0569000000000000E-02   1.5030000000000000E-03   9.2010000000000008E-03
atom  -2.5613169999999998E+00   4.7598550000000008E+00   1.0771147999999998E+01 Mg   0.0000000000000000E+00   0.0000000000000000E+00  -1.5330000000000001E-03   1.1716000000000001E-02  -8.4449999999999994E-03
atom   2.1896040000000005E+00   8.9429649999999992E+00   3.2641150000000012E+00 Mg   0.0000000000000000E+00   0.0000000000000000E+00   1.7892000000000002E-02  -6.0780000000000001E-03   8.1890000000000001E-03
atom   1.5021319999999994E+00   1.0798705999999999E+01   6.5982519999999987E+00 Mg   0.0000000000000000E+00   0.0000000000000000E+00   3.7309999999999999E-03  -2.4280000000000000E-03  -2.2169999999999998E-03
atom   5.5598200000000002E+00   5.6222260000000004E+00   3.3707470000000019E+00 Mg   0.0000000000000000E+00   0.0000000000000000E+00   6.0899999999999995E-04   9.8010000000000007E-03  -8.8710000000000004E-03
atom   3.5737800000000114E-01   2.7663030000000002E+00   6.4697380000000004E+00 Mg   0.0000000000000000E+00   0.0000000000000000E+00   7.4700000000000005E-04  -1.9750000000000002E-03   3.6470000000000001E-03
atom   8.1837520000000037E+00   2.9296000000000000E-01   6.1750289999999959E+00 Mg   0.0000000000000000E+00   0.0000000000000000E+00  -1.2710000000000001E-02  -1.9020000000000000E-03  -5.0509999999999999E-03
atom   2.7296429999999980E+00   8.5932340000000007E+00   1.0380252000000000E+01 Mg   0.0000000000000000E+00   0.0000000000000000E+00   7.3239999999999998E-03  -3.9979999999999998E-03   7.7949999999999998E-03
atom   1.4803939999999991E+00   1.3477100000000004E+00   4.7784939999999985E+00 Mg   0.0000000000000000E+00   0.0000000000000000E+00   1.2596000000000000E-02  -6.9670000000000001E-03  -6.4760000000000000E-03
atom  -2.0341869999999997E+00   8.2394750000000005E+00   2.0771390000000003E+00 Mg   0.0000000000000000E+00   0.0000000000000000E+00   3.5260000000000001E-03   1.4559000000000001E-02   3.1170000000000000E-03
atom   5.5957049999999997E+00   9.7881900000000002E+00   2.5375589999999986E+00 Mg   0.0000000000000000E+00   0.0000000000000000E+00   2.1600000000000000E-03   1.2914999999999999E-02   1.4622000000000000E-02
atom   1.7094159999999998E+00   1.6082929999999995E+00   9.5566750000000003E+00 Mg   0.0000000000000000E+00   0.0000000000000000E+00  -1.0208000000000000E-02  -6.3249999999999999E-03   2.3800000000000002E-03
atom   4.2127280000000029E+00   5.1256840000000015E+00   6.9254380000000015E+00 Mg   0.0000000000000000E+00   0.0000000000000000E+00  -2.8319999999999999E-03  -1.8480000000000000E-03   5.4739999999999997E-03
atom   7.5557310000000015E+00   1.6100900000000022E+00   7.5117770000000004E+00 Mg   0.0000000000000000E+00   0.0000000000000000E+00   8.2100000000000001E-04   1.5720000000000001E-02   4.1529999999999996E-03
atom   3.5646760000000026E+00   5.4336099999999998E+00   1.0142581000000002E+01 Mg   0.0000000000000000E+00   0.0000000000000000E+00   2.3709999999999998E-03  -1.1002000000000000E-02   1.9500000000000000E-04
atom  -1.5785520000000006E+00   5.9113869999999995E+00   3.1186769999999986E+00 Mg   0.0000000000000000E+00   0.0000000000000000E+00  -2.5290000000000000E-03  -1.5200000000000001E-04  -9.9349999999999994E-03
atom   5.4580489999999982E+00   9.7993900000000007E+00   1.0260138999999999E+01 Mg   0.0000000000000000E+00   0.0000000000000000E+00  -5.8139999999999997E-03   4.8209999999999998E-03  -5.8970000000000003E-03
atom  -5.0342900000000004E+00   9.2504310000000007E+00   1.0776152000000000E+01 Mg   0.0000000000000000E+00   0.0000000000000000E+00   1.5207000000000000E-02   6.6379999999999998E-03   9.0000000000000002E-06
atom  -7.5623299999999882E-01   3.3204669999999998E+00   3.7270569999999994E+00 Mg   0.0000000000000000E+00   0.0000000000000000E+00  -3.0650000000000000E-03   1.1934000000000000E-02   1.6036000000000002E-02
atom   6.4080290000000000E+00   2.3509429999999996E+00   7.0250149999999989E+00 Mg   0.0000000000000000E+00   0.0000000000000000E+00  -5.7120000000000001E-03   1.9297000000000002E-02  -7.1219999999999999E-03
atom   5.3575590000000011E+00   2.9870449999999993E+00   1.7683509999999987E+00 Mg   0.0000000000000000E+00   0.0000000000000000E+00   1.2803999999999999E-02  -2.1078000000000000E-02   6.8950000000000001E-03
atom   7.7413700000000034E+00   6.2016409999999995E+00   1.0853830000000011E+00 Mg   0.0000000000000000E+00   0.0000000000000000E+00   2.1003000000000001E-02   5.7409999999999996E-03   2.1740000000000002E-03
atom  -4.3217659999999967E+00   9.9251149999999981E+00   7.0886310000000012E+00 Mg   0.0000000000000000E+00   0.0000000000000000E+00  -5.9820000000000003E-03  -1.1549000000000000E-02  -8.4399999999999996E-03
energy  -5.5895811000000002E+01
charge   0.0000000000000000E+00
end
begin
comment  i =     2830, time =     1415.000, E =       -56.2024288798
lattice   1.3094711000000000E+01   0.0000000000000000E+00   0.0000000000000000E+00
lattice  -6.5473559999999997E+00   1.1340353000000000E+01   0.0000000000000000E+00
lattice   0.0000000000000000E+00   0.0000000000000000E+00   1.0515464000000000E+01
atom  -5.1089599999999968E-01   3.6724289999999997E+00   2.6292089999999995E+00 Mg   0.0000000000000000E+00   0.0000000000000000E+00   3.0010000000000002E-03  -1.7200000000000000E-03   2.6389999999999999E-03
atom   3.3774539999999997E+00   2.1001469999999998E+00   8.1764069999999975E+00 Mg   0.0000000000000000E+00   0.0000000000000000E+00  -3.4110000000000000E-03   3.1979999999999999E-03  -1.9171000000000001E-02
atom   5.9806069999999991E+00   3.2177039999999990E+00   2.7043689999999994E+00 Mg   0.0000000000000000E+00   0.0000000000000000E+00   7.5440000000000004E-03   6.6070000000000000E-03   1.2463000000000000E-02
atom   8.9735649999999989E+00   1.5333399999999997E+00   7.5204209999999980E+00 Mg   0.0000000000000000E+00   0.0000000000000000E+00   1.7049999999999999E-03   6.0870000000000004E-03  -6.8030000000000000E-03
atom  -8.2678500000000299E-01   3.8011029999999995E+00   2.7840579999999990E+00 Mg   0.0000000000000000E+00   0.0000000000000000E+00  -8.7299999999999997E-04  -3.3370000000000001E-03  -4.3810000000000003E-03
atom   1.4965929999999983E+00   1.0976099999999998E+00   7.5261629999999995E+00 Mg   0.0000000000000000E+00   0.0000000000000000E+00   6.7689999999999998E-03  -1.8799999999999999E-04  -3.1779999999999998E-03
atom   5.2192249999999971E+00   3.7858359999999998E+00   2.1869639999999997E+00 Mg   0.0000000000000000E+00   0.0000000000000000E+00  -6.0899999999999999E-03  -1.6019999999999999E-03   7.6599999999999997E-04
atom   7.5178499999999948E+00   2.0306869999999995E+00   7.0899319999999992E+00 Mg   0.0000000000000000E+00   0.0000000000000000E+00   2.5000000000000001E-04  -4.0549999999999996E-03   1.2819999999999999E-03
atom  -3.4042439999999985E+00   9.4818069999999981E+00   2.6676939999999996E+00 Mg   0.0000000000000000E+00   0.0000000000000000E+00   4.3200000000000001E-03  -5.4700000000000000E-03  -1.8881999999999999E-02
atom   2.9020000000004858E-03   6.9776669999999985E+00   7.2309829999999984E+00 Mg   0.0000000000000000E+00   0.0000000000000000E+00   1.0161999999999999E-02  -2.8579999999999999E-03  -3.5929999999999998E-03