begin
comment  i =     7440, time =     3720.000, E =       -56.1681069969
lattice   1.3061588000000000E+01   0.0000000000000000E+00   0.0000000000000000E+00
lattice  -6.5307940000000002E+00   1.1311667000000000E+01   0.0000000000000000E+00
lattice   0.0000000000000000E+00   0.0000000000000000E+00   1.0488865000000001E+01
atom   4.6535399999999993E-01   4.0182739999999990E+00   2.2050000000000001E+00 Mg   0.0000000000000000E+00   0.0000000000000000E+00  -6.1809999999999999E-03  -6.4859999999999996E-03   6.1599999999999997E-03
atom   2.3973899999999997E+00   1.2365699999999999E+00   7.0038319999999992E+00 Mg   0.0000000000000000E+00   0.0000000000000000E+00  -3.3500000000000001E-04   8.7480000000000006E-03   5.4199999999999995E-04
atom   6.5456169999999991E+00   3.4655000000000000E+00   2.5828220000000002E+00 Mg   0.0000000000000000E+00   0.0000000000000000E+00  -3.7139999999999999E-03  -6.9899999999999997E-04  -4.3880000000000004E-03
atom   9.2664579999999983E+00   1.6754849999999999E+00   7.3977769999999987E+00 Mg   0.0000000000000000E+00   0.0000000000000000E+00   4.3449999999999999E-03  -2.5140000000000002E-03   4.6790000000000000E-03
atom  -2.8496100000000268E-01   3.5627389999999997E+00   2.9078710000000001E+00 Mg   0.0000000000000000E+00   0.0000000000000000E+00  -7.3179999999999999E-03  -3.9960000000000004E-03  -4.4190000000000002E-03
atom   2.4410619999999974E+00   2.4145009999999996E+00   7.7018680000000002E+00 Mg   0.0000000000000000E+00   0.0000000000000000E+00  -3.2889999999999998E-03  -7.8120000000000004E-03   2.1879999999999998E-03
atom   5.9333689999999990E+00   3.8939519999999996E+00   2.6872889999999994E+00 Mg   0.0000000000000000E+00   0.0000000000000000E+00   6.7800000000000000E-04   2.1489999999999999E-03   3.2000000000000002E-03
atom   7.9836249999999973E+00   2.3790909999999998E+00   7.6726459999999994E+00 Mg   0.0000000000000000E+00   0.0000000000000000E+00   1.2574999999999999E-02  -3.5220000000000000E-03   5.5000000000000003E-04
atom  -2.5704740000000004E+00   8.8919840000000008E+00   1.9748140000000001E+00 Mg   0.0000000000000000E+00   0.0000000000000000E+00  -8.2439999999999996E-03   8.0789999999999994E-03   9.2029999999999994E-03
atom  -7.3610200000000015E-01   8.0746549999999999E+00   8.1173889999999993E+00 Mg   0.0000000000000000E+00   0.0000000000000000E+00   7.5440000000000004E-03  -1.4930000000000000E-03  -5.9930000000000001E-03
atom   3.0820730000000007E+00   8.8003019999999985E+00   3.2033369999999994E+00 Mg   0.0000000000000000E+00   0.0000000000000000E+00   5.5030000000000001E-03   4.4980000000000003E-03  -1.0080000000000000E-02
atom   5.9352479999999970E+00   6.3400629999999998E+00   7.4576089999999988E+00 Mg   0.0000000000000000E+00   0.0000000000000000E+00  -2.0980000000000000E-03   5.9569999999999996E-03   7.1840000000000003E-03
atom  -3.8006480000000020E+00   9.0016339999999975E+00   2.8017789999999998E+00 Mg   0.0000000000000000E+00   0.0000000000000000E+00  -5.5469999999999998E-03  -2.5010000000000002E-03  -2.4060000000000002E-03
atom  -9.3007599999999868E-01   7.0227949999999995E+00   7.5387380000000004E+00 Mg   0.0000000000000000E+00   0.0000000000000000E+00  -3.4399999999999999E-03   5.6579999999999998E-03   4.4630000000000000E-03
atom   1.8915939999999987E+00   9.3585129999999985E+00   2.7943359999999999E+00 Mg   0.0000000000000000E+00   0.0000000000000000E+00   1.0097000000000000E-02  -8.6820000000000005E-03   6.7500000000000004E-04
atom   5.1222689999999984E+00   7.9961869999999990E+00   7.5792630000000001E+00 Mg   0.0000000000000000E+00   0.0000000000000000E+00   1.2999999999999999E-04  -1.3730000000000001E-03   3.1270000000000000E-03
atom   6.0578400000000010E-01   2.9822619999999991E+00   1.8602390000000000E+00 Mg   0.0000000000000000E+00   0.0000000000000000E+00  -1.2470000000000001E-03  -6.8859999999999998E-03  -2.5669999999999998E-03
atom   3.1499059999999992E+00   1.7902050000000000E+00   6.9480309999999994E+00 Mg   0.0000000000000000E+00   0.0000000000000000E+00   2.6410000000000001E-03  -4.2620000000000002E-03  -1.0920000000000001E-03
atom   6.8727269999999985E+00   2.9450729999999994E+00   2.7303090000000001E+00 Mg   0.0000000000000000E+00   0.0000000000000000E+00  -3.5990000000000002E-03  -8.3000000000000001E-03  -5.0390000000000001E-03
atom   9.7553740000000015E+00   1.2639399999999983E+00   7.2276289999999994E+00 Mg   0.0000000000000000E+00   0.0000000000000000E+00  -7.7660000000000003E-03   5.1300000000000000E-04   1.2959000000000000E-02
atom   1.9162999999999838E-01   3.0038429999999994E+00   2.2181169999999999E+00 Mg   0.0000000000000000E+00   0.0000000000000000E+00  -7.1199999999999996E-04  -3.9039999999999999E-03  -2.8950000000000000E-03
atom   2.1400529999999987E+00   1.3581899999999998E+00   7.6259649999999999E+00 Mg   0.0000000000000000E+00   0.0000000000000000E+00   1.4344000000000001E-02  -9.2219999999999993E-03  -3.3500000000000001E-04
atom   6.0373169999999989E+00   2.9611419999999984E+00   2.6152600000000001E+00 Mg   0.0000000000000000E+00   0.0000000000000000E+00  -1.3738000000000000E-02   2.0439999999999998E-03  -1.5879999999999998E-02
atom   9.0676419999999975E+00   2.0216229999999982E+00   6.8234069999999996E+00 Mg   0.0000000000000000E+00   0.0000000000000000E+00   1.0869000000000000E-02  -9.1880000000000000E-03   8.6000000000000000E-03
atom  -2.9638379999999978E+00   7.9594979999999973E+00   2.1395919999999999E+00 Mg   0.0000000000000000E+00   0.0000000000000000E+00   2.5160000000000000E-03   1.6360000000000001E-03   6.7799999999999996E-03
atom   1.3778500000000068E-01   7.1803769999999973E+00   7.8385099999999994E+00 Mg   0.0000000000000000E+00   0.0000000000000000E+00   6.8849999999999996E-03  -8.3099999999999997E-03  -6.4539999999999997E-03
atom   3.0451689999999996E+00   7.7981309999999997E+00   2.4985819999999999E+00 Mg   0.0000000000000000E+00   0.0000000000000000E+00  -1.4239999999999999E-03   1.4455000000000001E-02   1.1967000000000000E-02
atom   6.3637179999999995E+00   6.3609869999999988E+00   7.3912139999999997E+00 Mg   0.0000000000000000E+00   0.0000000000000000E+00   1.9160000000000000E-03   6.4400000000000004E-03   4.8000000000000001E-05
atom  -3.6427689999999990E+00   8.0274339999999960E+00   2.3993950000000002E+00 Mg   0.0000000000000000E+00   0.0000000000000000E+00   1.9480000000000001E-03   7.6309999999999998E-03  -1.4640000000000000E-03
atom  -3.0895000000000078E-01   6.3778179999999987E+00   6.7050520000000002E+00 Mg   0.0000000000000000E+00   0.0000000000000000E+00  -3.3349999999999999E-03   7.1250000000000003E-03   1.1405000000000000E-02
atom   2.3789429999999974E+00   8.1969549999999973E+00   2.1545800000000002E+00 Mg   0.0000000000000000E+00   0.0000000000000000E+00   8.6339999999999993E-03   1.0014000000000000E-02  -2.3240000000000001E-03
atom   5.6218319999999986E+00   6.0483129999999994E+00   7.0648899999999992E+00 Mg   0.0000000000000000E+00   0.0000000000000000E+00  -4.2919999999999998E-03   1.1839000000000001E-02   2.9629999999999999E-03
atom   4.9034899999999948E-01   4.0078199999999997E+00   1.3628070000000001E+00 Mg   0.0000000000000000E+00   0.0000000000000000E+00  -3.8260000000000000E-03  -3.1400000000000000E-03   5.8939999999999999E-03
atom   2.5092629999999998E+00   1.4415149999999999E+00   7.2451999999999996E+00 Mg   0.0000000000000000E+00   0.0000000000000000E+00   7.9509999999999997E-03   4.6810000000000003E-03  -1.4720000000000000E-02
atom   6.3090190000000002E+00   3.3145859999999994E+00   1.9498609999999998E+00 Mg   0.0000000000000000E+00   0.0000000000000000E+00   2.7230000000000002E-03   1.9919999999999998E-03  -2.0890000000000001E-03
atom   8.7722359999999995E+00   1.8018240000000001E+00   6.8529880000000007E+00 Mg   0.0000000000000000E+00   0.0000000000000000E+00   5.2220000000000001E-03  -4.3520000000000000E-03   2.4160000000000002E-03
atom  -4.9610000000004074E-02   2.4293989999999996E+00   2.6954399999999987E+00 Mg   0.0000000000000000E+00   0.0000000000000000E+00  -1.3720000000000000E-02   9.4830000000000001E-03   9.6199999999999996E-04
atom   3.1468050000000005E+00   2.2833009999999998E+00   7.5700909999999988E+00 Mg   0.0000000000000000E+00   0.0000000000000000E+00  -1.3986000000000000E-02  -9.8139999999999998E-03  -8.0300000000000000E-04
atom   5.3605440000000009E+00   3.1305769999999997E+00   2.3246599999999993E+00 Mg   0.0000000000000000E+00   0.0000000000000000E+00  -2.2250000000000000E-03  -4.8500000000000003E-04  -1.3313000000000000E-02
atom   8.5145059999999972E+00   2.2677169999999998E+00   6.1786019999999970E+00 Mg   0.0000000000000000E+00   0.0000000000000000E+00   1.6844999999999999E-02  -1.7040000000000000E-03   1.2696000000000001E-02
atom  -3.8300449999999997E+00   8.3718679999999992E+00   2.6529739999999977E+00 Mg   0.0000000000000000E+00   0.0000000000000000E+00   5.0309999999999999E-03  -4.2589999999999998E-03  -1.8676000000000002E-02
atom   9.7224999999999714E-02   7.8348230000000001E+00   6.5170369999999993E+00 Mg   0.0000000000000000E+00   0.0000000000000000E+00   6.6249999999999998E-03  -9.4920000000000004E-03   1.1760000000000000E-03
atom   3.6161050000000006E+00   9.1763149999999989E+00   1.8271669999999987E+00 Mg   0.0000000000000000E+00   0.0000000000000000E+00  -1.0390000000000000E-03  -2.2000000000000001E-03  -1.2650000000000001E-03
atom   5.7895040000000000E+00   7.5708589999999996E+00   7.0138119999999979E+00 Mg   0.0000000000000000E+00   0.0000000000000000E+00   6.5550000000000001E-03  -5.4920000000000004E-03   3.0709999999999999E-03
atom  -3.4312670000000018E+00   8.9840979999999995E+00   1.8341919999999987E+00 Mg   0.0000000000000000E+00   0.0000000000000000E+00  -8.6149999999999994E-03  -7.2870000000000001E-03  -1.7340000000000001E-03
atom  -7.4252400000000318E-01   6.7426719999999989E+00   7.6084320000000005E+00 Mg   0.0000000000000000E+00   0.0000000000000000E+00  -7.6309999999999998E-03   7.0799999999999997E-04  -7.2329999999999998E-03
atom   2.2185039999999980E+00   8.1122350000000001E+00   2.4387979999999994E+00 Mg   0.0000000000000000E+00   0.0000000000000000E+00  -1.2539999999999999E-03  -1.5529999999999999E-03  -4.0309999999999999E-03
atom   5.0612569999999995E+00   7.3315019999999995E+00   7.2704079999999989E+00 Mg   0.0000000000000000E+00   0.0000000000000000E+00   6.4200000000000004E-03  -2.4499999999999999E-04   8.2529999999999999E-03
atom   8.9074700000000018E-01   2.6969149999999997E+00   1.4550269999999990E+00 Mg   0.0000000000000000E+00   0.0000000000000000E+00  -7.0390000000000001E-03  -1.0250000000000001E-03  -3.3170000000000001E-03
atom   3.2341640000000003E+00   8.9364699999999875E-01   6.3530030000000002E+00 Mg   0.0000000000000000E+00   0.0000000000000000E+00  -2.6970000000000002E-03   1.0756999999999999E-02   1.3670000000000000E-02
atom   6.5494009999999996E+00   2.6342859999999968E+00   2.3625289999999990E+00 Mg   0.0000000000000000E+00   0.0000000000000000E+00   7.8729999999999998E-03  -1.9040000000000001E-03  -8.2950000000000003E-03
atom   1.0046858000000000E+01   1.8539929999999982E+00   7.2463920000000011E+00 Mg   0.0000000000000000E+00   0.0000000000000000E+00  -7.0260000000000001E-03  -3.5179999999999999E-03  -4.8919999999999996E-03
atom  -4.2304100000000117E-01   3.0372079999999970E+00   1.8737769999999991E+00 Mg   0.0000000000000000E+00   0.0000000000000000E+00   2.4280000000000000E-03   4.0140000000000002E-03   1.6340000000000000E-03
atom   2.8458459999999990E+00   1.0432599999999994E+00   6.2615039999999969E+00 Mg   0.0000000000000000E+00   0.0000000000000000E+00  -8.3500000000000002E-04   3.6790000000000000E-03   7.8910000000000004E-03
atom   6.7264379999999999E+00   2.1665479999999988E+00   1.3558969999999986E+00 Mg   0.0000000000000000E+00   0.0000000000000000E+00  -7.6369999999999997E-03   8.3639999999999999E-03   8.3309999999999999E-03
atom   8.6461359999999985E+00   8.2043799999999822E-01   7.1846539999999983E+00 Mg   0.0000000000000000E+00   0.0000000000000000E+00  -1.0340000000000000E-03   5.6990000000000001E-03  -1.0782000000000000E-02
atom  -2.2602829999999985E+00   8.1881939999999975E+00   2.1041720000000002E+00 Mg   0.0000000000000000E+00   0.0000000000000000E+00  -1.1722000000000000E-02   4.8620000000000000E-03  -6.0569999999999999E-03
atom   1.7463100000000209E-01   6.1430239999999978E+00   6.0909690000000003E+00 Mg   0.0000000000000000E+00   0.0000000000000000E+00   1.7700000000000001E-03  -6.2740000000000001E-03   1.7263000000000001E-02
atom   3.9778070000000008E+00   7.7253619999999978E+00   2.0552700000000006E+00 Mg   0.0000000000000000E+00   0.0000000000000000E+00  -6.9849999999999999E-03   6.2009999999999999E-03   1.2960000000000001E-03
atom   5.7313399999999994E+00   6.2499299999999973E+00   7.6394559999999982E+00 Mg   0.0000000000000000E+00   0.0000000000000000E+00   9.5790000000000007E-03  -2.5999999999999998E-05  -1.9297999999999999E-02
atom  -3.4440770000000014E+00   7.8708089999999986E+00   1.1384920000000003E+00 Mg   0.0000000000000000E+00   0.0000000000000000E+00   9.8779999999999996E-03  -2.9610000000000001E-03   2.6350000000000002E-03
atom  -6.4797300000000113E-01   7.2795839999999972E+00   6.3925519999999985E+00 Mg   0.0000000000000000E+00   0.0000000000000000E+00   1.9419999999999999E-03  -5.2050000000000004E-03  -6.0970000000000000E-03
atom   3.3279919999999983E+00   7.9443689999999991E+00   1.1450090000000006E+00 Mg   0.0000000000000000E+00   0.0000000000000000E+00  -7.4430000000000000E-03   4.6589999999999999E-03   8.9999999999999993E-03
atom   5.5377849999999960E+00   6.3001759999999987E+00   6.7632249999999985E+00 Mg   0.0000000000000000E+00   0.0000000000000000E+00  -4.7300000000000000E-04  -1.7960000000000001E-03  -4.9439999999999996E-03
energy  -5.6168106999999999E+01
charge   0.0000000000000000E+00
end
begin
comment  i =     5260, time =     2630.000, E =       -56.1909023416
lattice   1.3020298000000000E+01   0.0000000000000000E+00   0.0000000000000000E+00
lattice  -6.5101490000000002E+00   1.1275909000000000E+01   0.0000000000000000E+00
lattice   0.0000000000000000E+00   0.0000000000000000E+00   1.0455708000000000E+01
atom   4.9160699999999996E-01   3.6751459999999998E+00   2.6711860000000001E+00 Mg   0.0000000000000000E+00   0.0000000000000000E+00  -3.4429999999999999E-03  -8.7370000000000000E-03   5.7270000000000003E-03
atom   2.9426209999999999E+00   2.0220989999999999E+00   7.9680059999999999E+00 Mg   0.0000000000000000E+00   0.0000000000000000E+00   4.3179999999999998E-03  -1.8469999999999999E-03  -3.3409999999999998E-03
atom   6.5901409999999991E+00   3.1364589999999999E+00   2.5201940000000000E+00 Mg   0.0000000000000000E+00   0.0000000000000000E+00  -1.1481999999999999E-02   7.3800000000000005E-04  -6.4970000000000002E-03
atom   9.2626719999999985E+00   2.0566350000000000E+00   7.2419870000000000E+00 Mg   0.0000000000000000E+00   0.0000000000000000E+00   1.5770000000000001E-03  -4.7850000000000002E-03   8.6580000000000008E-03
atom  -6.6015000000000090E-01   4.3689809999999998E+00   2.2224900000000001E+00 Mg   0.0000000000000000E+00   0.0000000000000000E+00   1.0499999999999999E-03  -8.4379999999999993E-03   1.3060000000000001E-03
atom   2.8725659999999995E+00   2.1647970000000001E+00   7.4497400000000011E+00 Mg   0.0000000000000000E+00   0.0000000000000000E+00  -5.2180000000000004E-03  -6.0089999999999996E-03   7.8500000000000000E-04
atom   5.6471699999999965E+00   3.6980540000000000E+00   2.7524620000000000E+00 Mg   0.0000000000000000E+00   0.0000000000000000E+00  -5.8840000000000003E-03   4.3080000000000002E-03  -3.7929999999999999E-03
atom   8.8512829999999951E+00   1.9908839999999999E+00   7.8285400000000003E+00 Mg   0.0000000000000000E+00   0.0000000000000000E+00  -5.9810000000000002E-03  -2.2799999999999999E-03  -6.0860000000000003E-03
atom  -2.6308049999999992E+00   8.2992050000000006E+00   2.2539959999999999E+00 Mg   0.0000000000000000E+00   0.0000000000000000E+00  -4.1180000000000001E-03   6.3190000000000000E-03  -4.6099999999999998E-04
atom   1.4361500000000035E-01   7.4590519999999998E+00   7.5285849999999996E+00 Mg   0.0000000000000000E+00   0.0000000000000000E+00   3.4849999999999998E-03  -7.5880000000000001E-03  -4.3350000000000003E-03
atom   3.1328260000000006E+00   8.4507169999999991E+00   2.0800529999999999E+00 Mg   0.0000000000000000E+00   0.0000000000000000E+00  -5.0870000000000004E-03   7.7489999999999998E-03   1.0555999999999999E-02
atom   6.1750259999999981E+00   6.6313779999999998E+00   6.7560180000000001E+00 Mg   0.0000000000000000E+00   0.0000000000000000E+00  -6.4660000000000004E-03   5.5690000000000002E-03   1.3250000000000000E-02
atom  -4.5697509999999992E+00   9.0672160000000002E+00   2.0401769999999999E+00 Mg   0.0000000000000000E+00   0.0000000000000000E+00   1.7715000000000002E-02  -7.3650000000000000E-03   1.9090000000000001E-03
atom  -3.9436900000000313E-01   7.1953050000000012E+00   7.2657600000000002E+00 Mg   0.0000000000000000E+00   0.0000000000000000E+00  -3.8869999999999998E-03  -4.0999999999999999E-04  -7.8059999999999996E-03
atom   2.4111149999999961E+00   8.9973440000000000E+00   2.3826760000000000E+00 Mg   0.0000000000000000E+00   0.0000000000000000E+00  -1.5960000000000000E-03   5.0090000000000004E-03   2.8370000000000001E-03
atom   5.8994199999999992E+00   7.0376420000000000E+00   6.9194909999999998E+00 Mg   0.0000000000000000E+00   0.0000000000000000E+00  -3.2550000000000001E-03   5.1060000000000003E-03   1.4345000000000000E-02
atom   8.3313099999999995E-01   2.8111409999999997E+00   2.6436540000000006E+00 Mg   0.0000000000000000E+00   0.0000000000000000E+00   1.9880000000000002E-03   3.1459999999999999E-03  -5.4330000000000003E-03
atom   3.5048290000000004E+00   6.6541600000000112E-01   7.2950580000000000E+00 Mg   0.0000000000000000E+00   0.0000000000000000E+00   8.5400000000000005E-04   1.2446000000000000E-02   7.7830000000000000E-03
atom   7.0110699999999992E+00   3.3947310000000011E+00   3.0533190000000001E+00 Mg   0.0000000000000000E+00   0.0000000000000000E+00  -2.5439999999999998E-03  -2.7179999999999999E-03  -1.1900000000000001E-03
atom   1.0042491000000000E+01   1.5284399999999987E+00   7.2164289999999998E+00 Mg   0.0000000000000000E+00   0.0000000000000000E+00  -4.1650000000000003E-03  -1.0666999999999999E-02   1.1897000000000000E-02
atom   2.9071900000000023E-01   3.0370750000000002E+00   2.1594170000000004E+00 Mg   0.0000000000000000E+00   0.0000000000000000E+00  -1.2748000000000001E-02   6.6559999999999996E-03   2.3259999999999999E-03
atom   2.4816500000000010E+00   1.1165199999999903E-01   7.1409440000000002E+00 Mg   0.0000000000000000E+00   0.0000000000000000E+00   5.1390000000000003E-03   1.5102000000000001E-02   2.7680000000000001E-03
atom   5.7669079999999964E+00   3.3365220000000009E+00   1.9377789999999999E+00 Mg   0.0000000000000000E+00   0.0000000000000000E+00  -1.4050000000000000E-03  -8.2470000000000009E-03   8.5280000000000009E-03
atom   9.1230099999999990E+00   1.4197429999999993E+00   6.9494340000000010E+00 Mg   0.0000000000000000E+00   0.0000000000000000E+00  -3.8349999999999999E-03  -2.5140000000000002E-03   5.9420000000000002E-03
atom  -2.6268559999999987E+00   7.6049999999999986E+00   2.4736810000000000E+00 Mg   0.0000000000000000E+00   0.0000000000000000E+00   2.8830000000000001E-03   1.0363000000000001E-02  -7.8600000000000002E-04
atom   5.5532600000000032E-01   6.8586830000000019E+00   7.1603600000000007E+00 Mg   0.0000000000000000E+00   0.0000000000000000E+00  -1.8970000000000000E-03  -4.1920000000000004E-03   1.3275000000000000E-02
atom   3.8196380000000012E+00   8.3574289999999980E+00   3.1013510000000006E+00 Mg   0.0000000000000000E+00   0.0000000000000000E+00   3.4800000000000000E-03  -3.9189999999999997E-03  -7.3850000000000001E-03
atom   6.8676950000000003E+00   7.0625299999999998E+00   8.0670909999999996E+00 Mg   0.0000000000000000E+00   0.0000000000000000E+00  -4.0689999999999997E-03  -2.8790000000000000E-03  -5.7349999999999996E-03
atom  -3.0842529999999999E+00   8.9214509999999994E+00   2.0673550000000001E+00 Mg   0.0000000000000000E+00   0.0000000000000000E+00  -4.7660000000000003E-03  -6.1960000000000001E-03   5.7570000000000000E-03
atom  -3.6749599999999971E-01   6.3806430000000010E+00   6.8556900000000001E+00 Mg   0.0000000000000000E+00   0.0000000000000000E+00  -3.6730000000000000E-03   5.3959999999999998E-03   9.0910000000000001E-03
atom   2.4461189999999999E+00   8.9159389999999998E+00   2.8743320000000003E+00 Mg   0.0000000000000000E+00   0.0000000000000000E+00   1.3370000000000000E-02  -6.9969999999999997E-03  -8.5400000000000007E-03
atom   5.4095729999999991E+00   6.3084629999999962E+00   7.3519900000000007E+00 Mg   0.0000000000000000E+00   0.0000000000000000E+00   2.9110000000000000E-03   2.3950000000000000E-03  -2.7900000000000001E-04
atom  -6.2536199999999975E-01   3.8242590000000001E+00   2.0244320000000009E+00 Mg   0.0000000000000000E+00   0.0000000000000000E+00   4.6719999999999999E-03  -7.1329999999999996E-03   6.8339999999999998E-03
atom   2.3548849999999999E+00   1.1327179999999999E+00   7.2931030000000021E+00 Mg   0.0000000000000000E+00   0.0000000000000000E+00   3.7550000000000001E-03   5.9800000000000001E-03  -5.4349999999999997E-03
atom   5.5776830000000013E+00   3.3171179999999998E+00   2.5592070000000020E+00 Mg   0.0000000000000000E+00   0.0000000000000000E+00   5.1580000000000003E-03   3.5260000000000001E-03  -3.7039999999999998E-03
atom   9.4286819999999985E+00   1.1677180000000000E+00   7.4165650000000012E+00 Mg   0.0000000000000000E+00   0.0000000000000000E+00  -5.5399999999999998E-03   3.1779999999999998E-03  -8.0970000000000000E-03
atom  -1.1603360000000027E+00   3.5783049999999998E+00   1.3836770000000005E+00 Mg   0.0000000000000000E+00   0.0000000000000000E+00   3.4520000000000002E-03  -9.0270000000000003E-03   5.1440000000000001E-03
atom   2.0856659999999989E+00   1.6635500000000001E+00   6.5949410000000013E+00 Mg   0.0000000000000000E+00   0.0000000000000000E+00   1.0660000000000001E-03   2.1970000000000002E-03   1.5939999999999999E-03
atom   4.9464439999999996E+00   3.8503449999999999E+00   2.1841369999999993E+00 Mg   0.0000000000000000E+00   0.0000000000000000E+00   5.7670000000000004E-03  -5.6330000000000000E-03  -1.7570000000000001E-03
atom   7.8625140000000009E+00   2.2285200000000001E+00   7.2816480000000006E+00 Mg   0.0000000000000000E+00   0.0000000000000000E+00   7.0730000000000003E-03  -1.8619999999999999E-03  -7.7510000000000001E-03
atom  -3.2492439999999991E+00   8.7911319999999993E+00   2.4097840000000006E+00 Mg   0.0000000000000000E+00   0.0000000000000000E+00  -7.9459999999999999E-03   4.7549999999999997E-03  -1.0182000000000000E-02
atom   3.9818900000000068E-01   6.8676279999999990E+00   6.7078469999999992E+00 Mg   0.0000000000000000E+00   0.0000000000000000E+00  -1.2904000000000001E-02  -4.4580000000000002E-03   3.1370000000000000E-03
atom   2.1926249999999996E+00   8.8306509999999996E+00   1.9316450000000001E+00 Mg   0.0000000000000000E+00   0.0000000000000000E+00   1.7933000000000001E-02   1.0829999999999999E-02  -3.8890000000000001E-03
atom   5.7808109999999999E+00   7.2125950000000012E+00   6.7772970000000008E+00 Mg   0.0000000000000000E+00   0.0000000000000000E+00   1.0460000000000001E-02  -6.4770000000000001E-03  -6.9290000000000003E-03
atom  -4.1687730000000007E+00   8.4446069999999995E+00   1.7812510000000006E+00 Mg   0.0000000000000000E+00   0.0000000000000000E+00  -1.7210000000000001E-03   2.5149999999999999E-03  -4.9189999999999998E-03
atom  -1.0092189999999992E+00   6.4482410000000003E+00   6.2132740000000020E+00 Mg   0.0000000000000000E+00   0.0000000000000000E+00  -2.6220000000000002E-03   1.1364000000000001E-02   1.7550000000000000E-03
atom   2.4741359999999992E+00   8.5572990000000004E+00   1.1067809999999991E+00 Mg   0.0000000000000000E+00   0.0000000000000000E+00  -4.1399999999999998E-04   1.2423999999999999E-02   1.1294000000000000E-02
atom   4.7491049999999992E+00   7.4449119999999995E+00   6.8222230000000001E+00 Mg   0.0000000000000000E+00   0.0000000000000000E+00   4.6430000000000004E-03  -7.7400000000000004E-03   2.6999999999999999E-05
atom   1.7579800000000076E-01   3.0393360000000014E+00   1.9853120000000013E+00 Mg   0.0000000000000000E+00   0.0000000000000000E+00   1.7650000000000001E-03  -8.6260000000000000E-03  -7.2550000000000002E-03
atom   3.5372620000000010E+00   7.1729599999999794E-01   7.3737020000000015E+00 Mg   0.0000000000000000E+00   0.0000000000000000E+00   6.7699999999999998E-04   8.3230000000000005E-03  -4.4320000000000002E-03
atom   6.5779730000000001E+00   3.6160780000000003E+00   2.6594940000000005E+00 Mg   0.0000000000000000E+00   0.0000000000000000E+00   5.3260000000000000E-03  -1.5875000000000000E-02  -4.4600000000000004E-03
atom   9.4532380000000007E+00   1.0736059999999985E+00   7.1777230000000030E+00 Mg   0.0000000000000000E+00   0.0000000000000000E+00   2.6259999999999999E-03   3.3500000000000001E-03  -5.9249999999999997E-03
atom   8.4452999999999737E-02   3.4953479999999986E+00   1.6333189999999997E+00 Mg   0.0000000000000000E+00   0.0000000000000000E+00  -8.9680000000000003E-03  -1.0500000000000001E-02  -3.2280000000000000E-03
atom   2.7852219999999983E+00   7.7603899999999892E-01   6.6406320000000028E+00 Mg   0.0000000000000000E+00   0.0000000000000000E+00   4.5880000000000001E-03   4.6330000000000000E-03  -8.1290000000000008E-03
atom   5.7176080000000002E+00   2.3918189999999999E+00   1.2013950000000000E+00 Mg   0.0000000000000000E+00   0.0000000000000000E+00   3.3679999999999999E-03  -1.0080000000000000E-03   8.0050000000000000E-03
atom   8.9224419999999984E+00   1.2765990000000000E+00   7.1400360000000012E+00 Mg   0.0000000000000000E+00   0.0000000000000000E+00  -1.7849999999999999E-03  -2.7269999999999998E-03  -1.1223000000000000E-02
atom  -2.5037929999999999E+00   8.2879799999999992E+00   1.8260070000000002E+00 Mg   0.0000000000000000E+00   0.0000000000000000E+00  -7.4380000000000002E-03  -2.8379999999999998E-03  -3.4919999999999999E-03
atom   8.2155000000001407E-02   6.1812409999999973E+00   6.6551650000000038E+00 Mg   0.0000000000000000E+00   0.0000000000000000E+00   5.7829999999999999E-03   3.3010000000000001E-03   1.0253000000000000E-02
atom   3.4174390000000003E+00   7.8675620000000013E+00   2.4409009999999998E+00 Mg   0.0000000000000000E+00   0.0000000000000000E+00  -1.9440000000000000E-03   1.4297000000000001E-02  -6.7700000000000000E-03
atom   6.3582200000000002E+00   6.3355680000000003E+00   7.6093590000000004E+00 Mg   0.0000000000000000E+00   0.0000000000000000E+00   7.0299999999999996E-04  -2.9659999999999999E-03  -4.5480000000000000E-03
atom  -3.4250600000000011E+00   8.5388249999999992E+00   2.0622230000000021E+00 Mg   0.0000000000000000E+00   0.0000000000000000E+00   2.8739999999999998E-03  -6.7199999999999996E-04  -2.7910000000000001E-03
atom  -1.4618300000000231E-01   6.4759130000000003E+00   6.5239050000000018E+00 Mg   0.0000000000000000E+00   0.0000000000000000E+00  -2.9060000000000002E-03   1.7370000000000000E-03   4.7549999999999997E-03
atom   2.5852689999999994E+00   8.3647520000000011E+00   1.7501950000000004E+00 Mg   0.0000000000000000E+00   0.0000000000000000E+00   6.0629999999999998E-03   5.3299999999999997E-03  -7.2199999999999999E-04
atom   5.8535119999999985E+00   6.2756369999999961E+00   6.2910200000000023E+00 Mg   0.0000000000000000E+00   0.0000000000000000E+00  -6.8190000000000004E-03  -4.7159999999999997E-03  -2.2339999999999999E-03
energy  -5.6190902000000001E+01
charge   0.0000000000000000E+00
end
begin
comment  i =     2940, time =     1470.000, E =       -56.2121002702
lattice   1.3121270000000001E+01   0.0000000000000000E+00   0.0000000000000000E+00
lattice  -6.5606350000000004E+00   1.1363353999999999E+01   0.0000000000000000E+00
lattice   0.0000000000000000E+00   0.0000000000000000E+00   1.0536792000000000E+01
atom  -7.3121100000000006E-01   4.1019490000000003E+00   2.7100420000000005E+00 Mg   0.0000000000000000E+00   0.0000000000000000E+00   5.7720000000000002E-03  -7.9129999999999999E-03   3.4999999999999997E-05
atom   2.6432780000000005E+00   1.5628359999999997E+00   7.6936090000000004E+00 Mg   0.0000000000000000E+00   0.0000000000000000E+00   4.2009999999999999E-03   5.4500000000000000E-03   8.1209999999999997E-03
atom   5.8906479999999997E+00   3.6683719999999993E+00   3.0482520000000002E+00 Mg   0.0000000000000000E+00   0.0000000000000000E+00  -2.6580000000000002E-03  -3.6600000000000001E-03  -1.1594999999999999E-02
atom   8.9906189999999988E+00   1.8329599999999997E+00   7.8060710000000011E+00 Mg   0.0000000000000000E+00   0.0000000000000000E+00   2.4870000000000001E-03  -4.9240000000000004E-03   1.6919999999999999E-03
atom  -8.4472400000000203E-01   2.9785889999999995E+00   2.5523899999999999E+00 Mg   0.0000000000000000E+00   0.0000000000000000E+00  -6.9909999999999998E-03   6.7759999999999999E-03  -3.2369999999999999E-03
atom   2.1171120000000005E+00   9.4844899999999988E-01   7.1357439999999999E+00 Mg   0.0000000000000000E+00   0.0000000000000000E+00  -1.1527000000000001E-02   1.2683000000000000E-02   8.7639999999999992E-03
atom   4.5950079999999955E+00   3.6901509999999997E+00   2.0854400000000002E+00 Mg   0.0000000000000000E+00   0.0000000000000000E+00   9.2619999999999994E-03  -1.7489999999999999E-03   1.1169999999999999E-03
atom   7.4695150000000003E+00   1.4663159999999997E+00   7.0791130000000013E+00 Mg   0.0000000000000000E+00   0.0000000000000000E+00   1.2624000000000000E-02   8.1320000000000003E-03   8.9739999999999993E-03
atom  -3.3087229999999996E+00   8.9203369999999982E+00   2.0400459999999998E+00 Mg   0.0000000000000000E+00   0.0000000000000000E+00  -2.7940000000000000E-03   5.8630000000000002E-03   6.3449999999999999E-03
atom   6.6318099999999969E-01   7.0628900000000003E+00   7.4628779999999999E+00 Mg   0.0000000000000000E+00   0.0000000000000000E+00  -7.6959999999999997E-03   1.8339999999999999E-03   5.4819999999999999E-03