begin
comment  i =    10110, time =     5055.000, E =       -55.8958109425
lattice   1.3554667999999999E+01   0.0000000000000000E+00   0.0000000000000000E+00
lattice  -6.7773339999999997E+00   1.1738686000000000E+01   0.0000000000000000E+00
lattice   0.0000000000000000E+00   0.0000000000000000E+00   1.0884824000000000E+01
atom   6.3091999999999948E-01   9.0405599999999993E+00   6.5799979999999998E+00 Mg   0.0000000000000000E+00   0.0000000000000000E+00   2.2599999999999999E-04  -1.7746999999999999E-02  -3.5690000000000001E-03
atom   1.2263281000000001E+01   2.8308500000000059E-01   3.6928189999999996E+00 Mg   0.0000000000000000E+00   0.0000000000000000E+00  -8.5810000000000001E-03  -1.1643000000000001E-02   2.4427999999999998E-02
atom  -3.5078339999999959E+00   8.8437420000000007E+00   6.8597890000000001E+00 Mg   0.0000000000000000E+00   0.0000000000000000E+00  -5.0350000000000004E-03   1.9050000000000000E-03   2.7590000000000002E-03
atom  -8.9526199999999811E-01   2.6610710000000002E+00   1.0574589999999984E+00 Mg   0.0000000000000000E+00   0.0000000000000000E+00  -3.1809999999999998E-03   1.6100000000000001E-03   1.6739999999999999E-03
atom   1.6498990000000016E+00   3.3203049999999998E+00   6.4348519999999994E+00 Mg   0.0000000000000000E+00   0.0000000000000000E+00   3.4610000000000001E-03  -1.6990000000000000E-03   3.4520000000000002E-03
atom   9.1210699999999989E-01   1.0067500000000000E+00   9.1449799999999986E+00 Mg   0.0000000000000000E+00   0.0000000000000000E+00   1.3010000000000001E-02  -7.4560000000000000E-03  -3.2841000000000002E-02
atom  -1.4709499999999982E+00   9.3838030000000003E+00   7.7500879999999999E+00 Mg   0.0000000000000000E+00   0.0000000000000000E+00  -8.6630000000000006E-03  -1.0581000000000000E-02  -6.8240000000000002E-03
atom  -4.1747489999999967E+00   9.9418579999999981E+00   2.7154500000000031E-01 Mg   0.0000000000000000E+00   0.0000000000000000E+00  -9.1299999999999992E-03  -8.6940000000000003E-03   5.4879999999999998E-03
atom   1.0875556000000000E+01   4.0312630000000000E+00   3.4178169999999994E+00 Mg   0.0000000000000000E+00   0.0000000000000000E+00  -7.2800000000000000E-03   1.1906999999999999E-02  -1.4267000000000000E-02
atom   2.0798970000000003E+00   3.9262169999999998E+00   1.0578927000000000E+01 Mg   0.0000000000000000E+00   0.0000000000000000E+00  -1.1920000000000000E-02   1.2200000000000001E-02   3.0799000000000000E-02
atom   2.8737390000000027E+00   5.1717300000000019E+00   4.2993620000000004E+00 Mg   0.0000000000000000E+00   0.0000000000000000E+00  -1.6029000000000002E-02  -1.1500000000000000E-04   4.9659999999999999E-03
atom   1.1431566000000000E+01   5.8594500000000016E-01   9.1160029999999974E+00 Mg   0.0000000000000000E+00   0.0000000000000000E+00   1.8748999999999998E-02  -1.2364000000000000E-02   3.8720000000000000E-03
atom   6.1703030000000032E+00   1.1870100000000004E-01   1.4000850000000000E+00 Mg   0.0000000000000000E+00   0.0000000000000000E+00   6.4830000000000000E-03  -9.3830000000000007E-03   9.0010000000000003E-03
atom   4.6376220000000004E+00   7.4442970000000006E+00   4.6740420000000000E+00 Mg   0.0000000000000000E+00   0.0000000000000000E+00  -8.9660000000000000E-03   1.8380000000000000E-03  -7.2389999999999998E-03
atom  -9.2665599999999582E-01   2.1588719999999992E+00   2.6323319999999999E+00 Mg   0.0000000000000000E+00   0.0000000000000000E+00  -5.2370000000000003E-03  -1.3280000000000000E-03   1.8873999999999998E-02
atom   5.9629250000000020E+00   2.0636239999999999E+00   1.5012010000000007E+00 Mg   0.0000000000000000E+00   0.0000000000000000E+00  -3.1530000000000000E-03   1.6508999999999999E-02   2.2989999999999998E-03
atom   5.3290029999999984E+00   7.4618580000000021E+00   3.3379740000000000E+00 Mg   0.0000000000000000E+00   0.0000000000000000E+00   5.3369999999999997E-03   8.4999999999999995E-04   4.8000000000000001E-04
atom   1.0442811999999998E+01   4.2473010000000002E+00   6.2765819999999986E+00 Mg   0.0000000000000000E+00   0.0000000000000000E+00   1.0499999999999999E-03  -1.0418000000000000E-02   8.7440000000000000E-03
atom   6.3814169999999990E+00   1.5426810000000011E+00   1.5406079999999998E+00 Mg   0.0000000000000000E+00   0.0000000000000000E+00  -6.1749999999999999E-03  -1.5479999999999999E-03  -1.2669999999999999E-03
atom   7.3219190000000003E+00   6.8392560000000016E+00   8.0070510000000006E+00 Mg   0.0000000000000000E+00   0.0000000000000000E+00  -2.6010000000000000E-03  -4.0710000000000000E-03  -6.0089999999999996E-03
atom   1.6108069999999990E+00   5.4304269999999999E+00   1.0277441000000000E+01 Mg   0.0000000000000000E+00   0.0000000000000000E+00  -8.9789999999999991E-03   3.2410000000000000E-03  -1.7677999999999999E-02
atom   6.0280470000000026E+00   9.5706200000000041E-01   2.2777479999999999E+00 Mg   0.0000000000000000E+00   0.0000000000000000E+00  -1.6650000000000002E-02  -5.3740000000000003E-03  -1.5089999999999999E-03
atom   3.9696590000000045E+00   4.4033180000000014E+00   9.9720040000000001E+00 Mg   0.0000000000000000E+00   0.0000000000000000E+00  -7.2690000000000003E-03   2.3942999999999999E-02   2.1189999999999998E-03
atom   8.6762499999999996E+00   1.4433179999999997E+00   8.7770410000000005E+00 Mg   0.0000000000000000E+00   0.0000000000000000E+00   1.8037000000000001E-02   1.0819000000000000E-02  -1.0181000000000001E-02
atom   9.9353699999999912E-01   9.0019550000000006E+00   6.9505560000000006E+00 Mg   0.0000000000000000E+00   0.0000000000000000E+00   3.0720000000000001E-03  -3.1350000000000002E-03   9.9520000000000008E-03
atom   9.7169370000000015E+00   1.0154009999999989E+00   7.8814349999999997E+00 Mg   0.0000000000000000E+00   0.0000000000000000E+00   7.2589999999999998E-03   7.7499999999999997E-04  -1.6528999999999999E-02
atom   2.4070089999999968E+00   1.7362800000000059E-01   6.7703699999999998E+00 Mg   0.0000000000000000E+00   0.0000000000000000E+00   1.2393000000000000E-02   7.5119999999999996E-03  -4.2700000000000004E-03
atom  -2.5788199999999981E+00   5.5474000000000023E+00   6.7801410000000004E+00 Mg   0.0000000000000000E+00   0.0000000000000000E+00  -3.8449999999999999E-03   6.2960000000000004E-03  -1.5372000000000000E-02
atom  -1.0240769999999997E+00   4.5422069999999986E+00   2.0410390000000000E+00 Mg   0.0000000000000000E+00   0.0000000000000000E+00  -1.6188999999999999E-02  -5.2900000000000004E-03  -2.4689999999999998E-03
atom   7.7904480000000005E+00   2.4240600000000017E+00   1.4550929999999995E+00 Mg   0.0000000000000000E+00   0.0000000000000000E+00  -7.8329999999999997E-03  -2.6419999999999998E-03   1.4973000000000000E-02
atom  -1.8809519999999991E+00   1.0146917000000000E+01   2.1272500000000001E+00 Mg   0.0000000000000000E+00   0.0000000000000000E+00   2.2239999999999998E-03   2.7870000000000000E-03   2.4659999999999999E-03
atom   6.5103790000000021E+00   7.6141419999999984E+00   8.1923569999999994E+00 Mg   0.0000000000000000E+00   0.0000000000000000E+00   1.1793000000000000E-02  -1.4515000000000000E-02   7.3350000000000004E-03
atom   5.3609760000000000E+00   1.0401160000000000E+00   8.6786500000000011E-01 Mg   0.0000000000000000E+00   0.0000000000000000E+00  -5.8659999999999997E-03  -2.2390000000000000E-02   1.2217000000000000E-02
atom   8.6785290000000010E+00   4.8900699999999997E-01   5.7292989999999993E+00 Mg   0.0000000000000000E+00   0.0000000000000000E+00   4.0499999999999998E-03  -6.6709999999999998E-03  -7.2269999999999999E-03
atom   6.8837650000000021E+00   9.9346709999999998E+00   3.1468419999999986E+00 Mg   0.0000000000000000E+00   0.0000000000000000E+00   1.2589999999999999E-03  -8.9770000000000006E-03  -6.6439999999999997E-03
atom   7.7642000000000433E-02   6.9919369999999992E+00   8.3241479999999992E+00 Mg   0.0000000000000000E+00   0.0000000000000000E+00   7.2859999999999999E-03   1.2352000000000000E-02   1.0460000000000001E-03
atom  -9.6317999999999140E-02   8.7428349999999995E+00   6.9183360000000000E+00 Mg   0.0000000000000000E+00   0.0000000000000000E+00  -7.6810000000000003E-03  -3.4020000000000001E-03  -2.0500000000000002E-03
atom   3.6737920000000028E+00   7.9604520000000001E+00   9.5007899999999934E-01 Mg   0.0000000000000000E+00   0.0000000000000000E+00  -6.9210000000000001E-03   1.0910000000000000E-02  -2.7000000000000000E-04
atom   8.0390970000000035E+00   6.2517139999999998E+00   8.1912509999999994E+00 Mg   0.0000000000000000E+00   0.0000000000000000E+00  -1.9510000000000000E-02   4.2690000000000002E-03  -3.1790000000000000E-03
atom   9.2048700000000050E-01   4.6408050000000003E+00   4.4162739999999987E+00 Mg   0.0000000000000000E+00   0.0000000000000000E+00   4.7619999999999997E-03   6.9569999999999996E-03  -1.8026000000000000E-02
atom  -8.9869699999999997E-01   3.1639200000000001E+00   5.3832799999999836E-01 Mg   0.0000000000000000E+00   0.0000000000000000E+00   1.5268000000000000E-02  -6.5799999999999999E-03  -1.0957000000000000E-02
atom   7.1255819999999996E+00   5.8119550000000002E+00   6.8781340000000002E+00 Mg   0.0000000000000000E+00   0.0000000000000000E+00   1.0569000000000000E-02   1.5030000000000000E-03   9.2010000000000008E-03
atom  -2.5613169999999998E+00   4.7598550000000008E+00   1.0771147999999998E+01 Mg   0.0000000000000000E+00   0.0000000000000000E+00  -1.5330000000000001E-03   1.1716000000000001E-02  -8.4449999999999994E-03
atom   2.1896040000000005E+00   8.9429649999999992E+00   3.2641150000000012E+00 Mg   0.0000000000000000E+00   0.0000000000000000E+00   1.7892000000000002E-02  -6.0780000000000001E-03   8.1890000000000001E-03
atom   1.5021319999999994E+00   1.0798705999999999E+01   6.5982519999999987E+00 Mg   0.0000000000000000E+00   0.0000000000000000E+00   3.7309999999999999E-03  -2.4280000000000000E-03  -2.2169999999999998E-03
atom   5.5598200000000002E+00   5.6222260000000004E+00   3.3707470000000019E+00 Mg   0.0000000000000000E+00   0.0000000000000000E+00   6.0899999999999995E-04   9.8010000000000007E-03  -8.8710000000000004E-03
atom   3.5737800000000114E-01   2.7663030000000002E+00   6.4697380000000004E+00 Mg   0.0000000000000000E+00   0.0000000000000000E+00   7.4700000000000005E-04  -1.9750000000000002E-03   3.6470000000000001E-03
atom   8.1837520000000037E+00   2.9296000000000000E-01   6.1750289999999959E+00 Mg   0.0000000000000000E+00   0.0000000000000000E+00  -1.2710000000000001E-02  -1.9020000000000000E-03  -5.0509999999999999E-03
atom   2.7296429999999980E+00   8.5932340000000007E+00   1.0380252000000000E+01 Mg   0.0000000000000000E+00   0.0000000000000000E+00   7.3239999999999998E-03  -3.9979999999999998E-03   7.7949999999999998E-03
atom   1.4803939999999991E+00   1.3477100000000004E+00   4.7784939999999985E+00 Mg   0.0000000000000000E+00   0.0000000000000000E+00   1.2596000000000000E-02  -6.9670000000000001E-03  -6.4760000000000000E-03
atom  -2.0341869999999997E+00   8.2394750000000005E+00   2.0771390000000003E+00 Mg   0.0000000000000000E+00   0.0000000000000000E+00   3.5260000000000001E-03   1.4559000000000001E-02   3.1170000000000000E-03
atom   5.5957049999999997E+00   9.7881900000000002E+00   2.5375589999999986E+00 Mg   0.0000000000000000E+00   0.0000000000000000E+00   2.1600000000000000E-03   1.2914999999999999E-02   1.4622000000000000E-02
atom   1.7094159999999998E+00   1.6082929999999995E+00   9.5566750000000003E+00 Mg   0.0000000000000000E+00   0.0000000000000000E+00  -1.0208000000000000E-02  -6.3249999999999999E-03   2.3800000000000002E-03
atom   4.2127280000000029E+00   5.1256840000000015E+00   6.9254380000000015E+00 Mg   0.0000000000000000E+00   0.0000000000000000E+00  -2.8319999999999999E-03  -1.8480000000000000E-03   5.4739999999999997E-03
atom   7.5557310000000015E+00   1.6100900000000022E+00   7.5117770000000004E+00 Mg   0.0000000000000000E+00   0.0000000000000000E+00   8.2100000000000001E-04   1.5720000000000001E-02   4.1529999999999996E-03
atom   3.5646760000000026E+00   5.4336099999999998E+00   1.0142581000000002E+01 Mg   0.0000000000000000E+00   0.0000000000000000E+00   2.3709999999999998E-03  -1.1002000000000000E-02   1.9500000000000000E-04
atom  -1.5785520000000006E+00   5.9113869999999995E+00   3.1186769999999986E+00 Mg   0.0000000000000000E+00   0.0000000000000000E+00  -2.5290000000000000E-03  -1.5200000000000001E-04  -9.9349999999999994E-03
atom   5.4580489999999982E+00   9.7993900000000007E+00   1.0260138999999999E+01 Mg   0.0000000000000000E+00   0.0000000000000000E+00  -5.8139999999999997E-03   4.8209999999999998E-03  -5.8970000000000003E-03
atom  -5.0342900000000004E+00   9.2504310000000007E+00   1.0776152000000000E+01 Mg   0.0000000000000000E+00   0.0000000000000000E+00   1.5207000000000000E-02   6.6379999999999998E-03   9.0000000000000002E-06
atom  -7.5623299999999882E-01   3.3204669999999998E+00   3.7270569999999994E+00 Mg   0.0000000000000000E+00   0.0000000000000000E+00  -3.0650000000000000E-03   1.1934000000000000E-02   1.6036000000000002E-02
atom   6.4080290000000000E+00   2.3509429999999996E+00   7.0250149999999989E+00 Mg   0.0000000000000000E+00   0.0000000000000000E+00  -5.7120000000000001E-03   1.9297000000000002E-02  -7.1219999999999999E-03
atom   5.3575590000000011E+00   2.9870449999999993E+00   1.7683509999999987E+00 Mg   0.0000000000000000E+00   0.0000000000000000E+00   1.2803999999999999E-02  -2.1078000000000000E-02   6.8950000000000001E-03
atom   7.7413700000000034E+00   6.2016409999999995E+00   1.0853830000000011E+00 Mg   0.0000000000000000E+00   0.0000000000000000E+00   2.1003000000000001E-02   5.7409999999999996E-03   2.1740000000000002E-03
atom  -4.3217659999999967E+00   9.9251149999999981E+00   7.0886310000000012E+00 Mg   0.0000000000000000E+00   0.0000000000000000E+00  -5.9820000000000003E-03  -1.1549000000000000E-02  -8.4399999999999996E-03
energy  -5.5895811000000002E+01
charge   0.0000000000000000E+00
end
begin
comment  i =    11900, time =     5950.000, E =       -56.2083254060
lattice   1.3064681000000000E+01   0.0000000000000000E+00   0.0000000000000000E+00
lattice  -6.5323409999999997E+00   1.1314346000000000E+01   0.0000000000000000E+00
lattice   0.0000000000000000E+00   0.0000000000000000E+00   1.0491349000000000E+01
atom   7.7196999999999752E-02   3.9857029999999996E+00   2.6868780000000001E+00 Mg   0.0000000000000000E+00   0.0000000000000000E+00   3.4099999999999999E-04  -8.0630000000000007E-03  -6.3210000000000002E-03
atom   3.4822249999999988E+00   1.9681660000000001E+00   7.4601529999999991E+00 Mg   0.0000000000000000E+00   0.0000000000000000E+00  -1.6680000000000000E-03  -5.5859999999999998E-03  -3.7759999999999998E-03
atom   6.2163909999999980E+00   3.6585149999999995E+00   2.0547140000000002E+00 Mg   0.0000000000000000E+00   0.0000000000000000E+00   4.8000000000000001E-05   2.7789999999999998E-03   1.1100000000000000E-04
atom   9.2792609999999982E+00   2.4377149999999999E+00   6.9895249999999995E+00 Mg   0.0000000000000000E+00   0.0000000000000000E+00   2.7420000000000001E-03  -5.1130000000000004E-03   4.7380000000000000E-03
atom  -2.5346300000000194E-01   3.8635380000000001E+00   2.4796169999999997E+00 Mg   0.0000000000000000E+00   0.0000000000000000E+00  -3.6760000000000000E-03  -2.1779999999999998E-03  -5.5059999999999996E-03
atom   1.9761889999999951E+00   1.7063489999999997E+00   7.5118589999999994E+00 Mg   0.0000000000000000E+00   0.0000000000000000E+00   8.9490000000000004E-03   3.0060000000000000E-03   4.3550000000000004E-03
atom   5.5758469999999942E+00   4.0809400000000000E+00   2.5452369999999997E+00 Mg   0.0000000000000000E+00   0.0000000000000000E+00  -2.8200000000000002E-04  -2.5829999999999998E-03  -6.4910000000000002E-03
atom   8.5460539999999927E+00   1.9933200000000000E+00   7.0367359999999994E+00 Mg   0.0000000000000000E+00   0.0000000000000000E+00   3.9050000000000001E-03  -1.6775000000000002E-02   4.1669999999999997E-03
atom  -2.4267080000000010E+00   9.1102380000000007E+00   2.1433289999999996E+00 Mg   0.0000000000000000E+00   0.0000000000000000E+00  -1.5240000000000000E-02   2.5509999999999999E-03   6.7790000000000003E-03
atom   2.7831899999999943E-01   7.0815359999999989E+00   7.4042050000000001E+00 Mg   0.0000000000000000E+00   0.0000000000000000E+00  -1.5620000000000000E-03   1.1340000000000000E-03  -3.9599999999999998E-04
atom   3.0625309999999986E+00   8.9543429999999997E+00   2.6639569999999999E+00 Mg   0.0000000000000000E+00   0.0000000000000000E+00   1.0919999999999999E-02   1.2489999999999999E-03  -5.7730000000000004E-03
atom   6.5586969999999978E+00   6.9800059999999995E+00   7.9531729999999996E+00 Mg   0.0000000000000000E+00   0.0000000000000000E+00  -5.2240000000000003E-03   1.3953000000000000E-02  -3.9430000000000003E-03
atom  -3.9558230000000041E+00   8.9176979999999997E+00   2.5496579999999995E+00 Mg   0.0000000000000000E+00   0.0000000000000000E+00  -1.6320000000000000E-03   1.1349999999999999E-03  -9.6100000000000005E-04
atom  -4.6501400000000426E-01   7.6296920000000004E+00   7.0635950000000003E+00 Mg   0.0000000000000000E+00   0.0000000000000000E+00  -1.0408000000000001E-02  -1.5730999999999998E-02   1.5150000000000001E-03
atom   2.1210739999999935E+00   9.3184310000000004E+00   2.2803390000000001E+00 Mg   0.0000000000000000E+00   0.0000000000000000E+00   4.5669999999999999E-03  -1.8469999999999999E-03  -1.2111000000000000E-02
atom   6.1220689999999944E+00   6.6164129999999997E+00   7.4654869999999995E+00 Mg   0.0000000000000000E+00   0.0000000000000000E+00  -8.3689999999999997E-03   1.3669000000000001E-02   4.4570000000000000E-03
atom   2.8691299999999753E-01   2.8799440000000009E+00   2.2983760000000002E+00 Mg   0.0000000000000000E+00   0.0000000000000000E+00   1.0100000000000000E-03   1.0200000000000001E-03  -8.2539999999999992E-03
atom   3.2066709999999978E+00   7.8517300000000090E-01   7.6449550000000004E+00 Mg   0.0000000000000000E+00   0.0000000000000000E+00  -2.5700000000000001E-04   2.5300000000000002E-04  -2.7510000000000000E-03
atom   6.7868669999999982E+00   3.3468920000000009E+00   3.2091439999999998E+00 Mg   0.0000000000000000E+00   0.0000000000000000E+00  -6.9010000000000000E-03   1.6180000000000001E-03  -9.6970000000000008E-03
atom   9.6587049999999977E+00   1.1263589999999997E+00   7.2740639999999992E+00 Mg   0.0000000000000000E+00   0.0000000000000000E+00   5.0369999999999998E-03  -2.6559999999999999E-03   4.8370000000000002E-03
atom  -3.1976800000000366E-01   3.0975279999999978E+00   1.7747549999999999E+00 Mg   0.0000000000000000E+00   0.0000000000000000E+00  -5.8630000000000002E-03  -9.6670000000000002E-03   1.2553999999999999E-02
atom   2.4871719999999957E+00   1.2964059999999982E+00   7.7218499999999990E+00 Mg   0.0000000000000000E+00   0.0000000000000000E+00   5.5669999999999999E-03  -1.1601999999999999E-02   1.3300000000000000E-03
atom   5.3664579999999953E+00   3.1540959999999982E+00   3.1661830000000002E+00 Mg   0.0000000000000000E+00   0.0000000000000000E+00   7.5519999999999997E-03  -7.2610000000000001E-03  -5.6820000000000004E-03
atom   8.7264469999999950E+00   7.0483400000000063E-01   7.1201059999999998E+00 Mg   0.0000000000000000E+00   0.0000000000000000E+00   8.4159999999999999E-03   1.7401000000000000E-02   7.0460000000000002E-03
atom  -2.3274670000000004E+00   8.5433820000000011E+00   2.6116180000000000E+00 Mg   0.0000000000000000E+00   0.0000000000000000E+00  -1.3030999999999999E-02  -4.4140000000000004E-03  -1.9150000000000000E-03
atom   2.8858499999999826E-01   5.8878479999999982E+00   7.4516329999999993E+00 Mg   0.0000000000000000E+00   0.0000000000000000E+00  -2.5660000000000001E-03   5.0780000000000000E-03   2.4830000000000000E-03
atom   3.0975129999999971E+00   8.7740159999999996E+00   3.0640039999999997E+00 Mg   0.0000000000000000E+00   0.0000000000000000E+00   1.2029000000000000E-02  -9.6659999999999992E-03  -9.6930000000000002E-03
atom   6.3094489999999972E+00   6.3552189999999982E+00   8.0629399999999976E+00 Mg   0.0000000000000000E+00   0.0000000000000000E+00   3.9129999999999998E-03   5.5199999999999997E-04  -6.1450000000000003E-03
atom  -2.9493900000000042E+00   8.6017620000000008E+00   2.8456220000000001E+00 Mg   0.0000000000000000E+00   0.0000000000000000E+00  -6.2290000000000002E-03  -1.5790000000000001E-03  -6.6420000000000003E-03
atom   4.0982099999999627E-01   6.1778440000000012E+00   6.8542379999999996E+00 Mg   0.0000000000000000E+00   0.0000000000000000E+00  -1.5653000000000000E-02   5.0480000000000004E-03   8.5150000000000000E-03
atom   2.6927069999999964E+00   7.8188759999999986E+00   2.3487469999999999E+00 Mg   0.0000000000000000E+00   0.0000000000000000E+00   6.2529999999999999E-03   1.7045999999999999E-02  -4.5120000000000004E-03
atom   5.8234579999999951E+00   6.3845559999999990E+00   7.9004009999999987E+00 Mg   0.0000000000000000E+00   0.0000000000000000E+00   5.7340000000000004E-03   1.5709999999999999E-03  -5.4500000000000000E-03
atom  -4.8899000000000477E-02   3.2596379999999998E+00   1.4649710000000000E+00 Mg   0.0000000000000000E+00   0.0000000000000000E+00   5.6899999999999995E-04   9.4579999999999994E-03   4.0679999999999996E-03
atom   2.4713109999999996E+00   1.9555739999999999E+00   6.8588449999999970E+00 Mg   0.0000000000000000E+00   0.0000000000000000E+00   1.0884000000000000E-02  -6.8479999999999999E-03  -1.2999999999999999E-04
atom   6.1372869999999979E+00   3.6242429999999999E+00   2.0860149999999984E+00 Mg   0.0000000000000000E+00   0.0000000000000000E+00  -1.8360000000000000E-03  -5.0200000000000002E-03  -1.6639999999999999E-03
atom   9.9461189999999995E+00   1.0961730000000001E+00   6.9232389999999988E+00 Mg   0.0000000000000000E+00   0.0000000000000000E+00  -5.9990000000000000E-03   1.2213999999999999E-02  -1.0549999999999999E-03
atom  -1.1199280000000009E+00   3.4136629999999997E+00   1.5026950000000003E+00 Mg   0.0000000000000000E+00   0.0000000000000000E+00   5.2570000000000004E-03   9.1240000000000002E-03   5.0010000000000002E-03
atom   2.6044559999999946E+00   1.6259220000000001E+00   6.6551209999999994E+00 Mg   0.0000000000000000E+00   0.0000000000000000E+00   6.3500000000000004E-04   2.2590000000000002E-03   9.7409999999999997E-03
atom   6.0408069999999974E+00   3.4033589999999996E+00   2.3804999999999983E+00 Mg   0.0000000000000000E+00   0.0000000000000000E+00  -9.1819999999999992E-03   6.1050000000000002E-03  -7.8030000000000000E-03
atom   8.6923739999999956E+00   1.4595410000000000E+00   7.1218679999999974E+00 Mg   0.0000000000000000E+00   0.0000000000000000E+00  -5.1310000000000001E-03  -1.4059999999999999E-03  -4.8299999999999998E-04
atom  -2.9421070000000005E+00   8.9808199999999996E+00   2.1026170000000000E+00 Mg   0.0000000000000000E+00   0.0000000000000000E+00  -6.6379999999999998E-03  -6.3660000000000001E-03  -3.3899999999999998E-03
atom  -1.3751900000000056E-01   6.9592120000000000E+00   6.7526999999999990E+00 Mg   0.0000000000000000E+00   0.0000000000000000E+00  -1.9500000000000000E-04   5.5999999999999999E-05  -1.4200000000000000E-03
atom   2.6963729999999990E+00   8.6635340000000003E+00   1.7517379999999987E+00 Mg   0.0000000000000000E+00   0.0000000000000000E+00   8.3590000000000001E-03   3.3950000000000000E-03   3.1560000000000000E-03
atom   5.9151819999999979E+00   6.8113440000000001E+00   6.3847120000000004E+00 Mg   0.0000000000000000E+00   0.0000000000000000E+00   1.6750000000000001E-03   7.5249999999999996E-03   1.1756000000000001E-02
atom  -3.3760050000000033E+00   9.2644760000000002E+00   2.1428880000000006E+00 Mg   0.0000000000000000E+00   0.0000000000000000E+00  -5.1809999999999998E-03  -9.0220000000000005E-03  -5.0130000000000001E-03
atom  -9.2385300000000337E-01   6.7493220000000003E+00   6.8277999999999990E+00 Mg   0.0000000000000000E+00   0.0000000000000000E+00   1.2470000000000001E-03   1.5499999999999999E-03  -2.4580000000000001E-03
atom   2.4640939999999967E+00   8.6487409999999993E+00   1.1076670000000006E+00 Mg   0.0000000000000000E+00   0.0000000000000000E+00   4.4359999999999998E-03  -1.4679999999999999E-03   1.3014000000000000E-02
atom   5.1339499999999942E+00   7.2224180000000002E+00   6.7776430000000012E+00 Mg   0.0000000000000000E+00   0.0000000000000000E+00   1.4980000000000000E-03   1.9160000000000000E-03   3.2209999999999999E-03
atom   3.1533499999999975E-01   3.1397420000000000E+00   2.4000300000000010E+00 Mg   0.0000000000000000E+00   0.0000000000000000E+00   8.0350000000000005E-03   2.1140000000000000E-03  -2.5193000000000000E-02
atom   3.9331489999999980E+00   1.1032370000000007E+00   6.8274800000000004E+00 Mg   0.0000000000000000E+00   0.0000000000000000E+00  -1.4029000000000000E-02   1.1930000000000000E-03   5.4169999999999999E-03
atom   6.4136909999999974E+00   2.5473149999999993E+00   1.8883079999999985E+00 Mg   0.0000000000000000E+00   0.0000000000000000E+00   2.0200000000000001E-03   7.7860000000000004E-03   3.1220000000000002E-03
atom   9.3341119999999975E+00   9.5546399999999787E-01   6.8411719999999976E+00 Mg   0.0000000000000000E+00   0.0000000000000000E+00   9.3939999999999996E-03  -7.8200000000000003E-04  -2.5810000000000000E-03
atom  -7.3544500000000212E-01   3.1724549999999976E+00   1.5518020000000003E+00 Mg   0.0000000000000000E+00   0.0000000000000000E+00  -2.7799999999999999E-03  -1.9500000000000000E-04   5.9140000000000000E-03
atom   2.6068579999999959E+00   7.9965500000000023E-01   6.9266730000000001E+00 Mg   0.0000000000000000E+00   0.0000000000000000E+00  -4.0999999999999999E-04   1.2999999999999999E-03   5.0359999999999997E-03
atom   4.9621209999999945E+00   3.1610579999999993E+00   2.4170350000000003E+00 Mg   0.0000000000000000E+00   0.0000000000000000E+00   8.1969999999999994E-03   6.2059999999999997E-03  -4.4809999999999997E-03
atom   8.9288209999999957E+00   1.3834699999999980E+00   6.1093669999999971E+00 Mg   0.0000000000000000E+00   0.0000000000000000E+00  -6.7440000000000000E-03  -1.0442000000000000E-02   2.0119999999999999E-02
atom  -3.1436270000000004E+00   8.5507289999999987E+00   1.7922480000000010E+00 Mg   0.0000000000000000E+00   0.0000000000000000E+00   7.8680000000000000E-03  -6.7380000000000001E-03   7.2030000000000002E-03
atom   4.3279699999999799E-01   6.8787670000000007E+00   6.4099150000000007E+00 Mg   0.0000000000000000E+00   0.0000000000000000E+00  -4.4749999999999998E-03  -5.5000000000000003E-04   1.0914000000000000E-02
atom   3.1260409999999976E+00   8.5793670000000013E+00   1.4820819999999990E+00 Mg   0.0000000000000000E+00   0.0000000000000000E+00  -3.0730000000000002E-03  -4.2640000000000004E-03   4.8849999999999996E-03
atom   6.3105779999999978E+00   6.2598829999999976E+00   7.3628459999999993E+00 Mg   0.0000000000000000E+00   0.0000000000000000E+00   7.1910000000000003E-03  -2.5880000000000000E-03   1.3380000000000000E-03
atom  -3.8082360000000017E+00   8.3734169999999981E+00   2.1293780000000009E+00 Mg   0.0000000000000000E+00   0.0000000000000000E+00   1.9400000000000001E-03  -4.6330000000000000E-03  -7.2999999999999996E-04
atom  -5.5732200000000331E-01   6.3417849999999971E+00   6.8367729999999991E+00 Mg   0.0000000000000000E+00   0.0000000000000000E+00   1.3720000000000000E-03   3.1210000000000001E-03  -1.3048000000000001E-02
atom   2.6401819999999936E+00   8.4659580000000005E+00   1.7316719999999985E+00 Mg   0.0000000000000000E+00   0.0000000000000000E+00  -5.9480000000000002E-03  -4.3290000000000004E-03   3.4830000000000000E-03
atom   5.9321079999999968E+00   6.0453959999999993E+00   7.5177469999999991E+00 Mg   0.0000000000000000E+00   0.0000000000000000E+00   2.6199999999999999E-03   4.9860000000000000E-03  -4.8120000000000003E-03
energy  -5.6208325000000002E+01
charge   0.0000000000000000E+00
end
begin
comment  i =     1150, time =      575.000, E =       -55.8829147985
lattice   1.3489195000000000E+01   0.0000000000000000E+00   0.0000000000000000E+00
lattice  -6.7445979999999999E+00   1.1681986000000000E+01   0.0000000000000000E+00
lattice   0.0000000000000000E+00   0.0000000000000000E+00   1.0832247000000001E+01
atom  -1.8728499999999999E+00   5.7590750000000002E+00   4.6047149999999997E+00 Mg   0.0000000000000000E+00   0.0000000000000000E+00  -4.4500000000000000E-03  -1.8447999999999999E-02   2.9550000000000002E-03
atom  -4.1028400000000004E-01   1.4351330000000000E+00   9.3934429999999995E+00 Mg   0.0000000000000000E+00   0.0000000000000000E+00   6.3540000000000003E-03   3.0400000000000002E-04  -1.0851000000000000E-02
atom   3.4245819999999996E+00   3.7860770000000001E+00   3.8052130000000002E+00 Mg   0.0000000000000000E+00   0.0000000000000000E+00  -3.3510999999999999E-02  -2.1371999999999999E-02  -1.3740000000000000E-03
atom   7.2123490000000006E+00   5.1228309999999997E+00   6.4056140000000008E+00 Mg   0.0000000000000000E+00   0.0000000000000000E+00   3.5727000000000002E-02   5.8659999999999997E-03   1.2945000000000000E-02
atom   1.2284500000000115E-01   3.3744350000000001E+00   4.2475969999999998E+00 Mg   0.0000000000000000E+00   0.0000000000000000E+00  -2.9092000000000000E-02  -1.4000000000000000E-05  -3.2460000000000002E-03
atom   6.9092500000000034E-01   4.5657079999999999E+00   9.6198680000000003E+00 Mg   0.0000000000000000E+00   0.0000000000000000E+00   3.5520000000000000E-03  -3.8449999999999999E-03  -3.4589999999999998E-03
atom   3.3013440000000003E+00   5.4735709999999997E+00   6.5209600000000001E-01 Mg   0.0000000000000000E+00   0.0000000000000000E+00   1.4940000000000000E-02  -4.0190000000000000E-03   6.6020000000000002E-03
atom   4.7224650000000015E+00   1.8464860000000001E+00   5.6354850000000001E+00 Mg   0.0000000000000000E+00   0.0000000000000000E+00   1.9476000000000000E-02   3.8630000000000001E-03  -3.6909999999999998E-03
atom  -8.5904799999999970E-01   1.0561245000000000E+01   2.7700440000000004E+00 Mg   0.0000000000000000E+00   0.0000000000000000E+00  -9.2699999999999998E-04   8.3669999999999994E-03  -7.2069999999999999E-03
atom   2.3875759999999997E+00   7.2023260000000002E+00   8.5459610000000001E+00 Mg   0.0000000000000000E+00   0.0000000000000000E+00  -1.2760000000000000E-03   5.9280000000000001E-03  -5.3280000000000003E-03