begin
comment  i =     4870, time =     2435.000, E =       -56.1698666475
lattice   1.3179022000000000E+01   0.0000000000000000E+00   0.0000000000000000E+00
lattice  -6.5895109999999999E+00   1.1413368000000000E+01   0.0000000000000000E+00
lattice   0.0000000000000000E+00   0.0000000000000000E+00   1.0583169000000000E+01
atom  -1.2185299999999999E-01   3.3786010000000002E+00   2.2384130000000000E+00 Mg   0.0000000000000000E+00   0.0000000000000000E+00   2.8579999999999999E-03  -3.4069999999999999E-03   1.2482999999999999E-02
atom   2.9392480000000010E+00   2.1419800000000002E+00   7.7014829999999996E+00 Mg   0.0000000000000000E+00   0.0000000000000000E+00   5.7629999999999999E-03   2.0200000000000000E-04  -2.3939999999999999E-03
atom   6.4292689999999997E+00   3.7648190000000001E+00   2.5914329999999999E+00 Mg   0.0000000000000000E+00   0.0000000000000000E+00  -1.8270000000000001E-03  -6.9560000000000004E-03   6.6900000000000000E-04
atom   9.5464280000000024E+00   1.9623050000000002E+00   7.3599630000000005E+00 Mg   0.0000000000000000E+00   0.0000000000000000E+00  -7.6800000000000002E-04  -1.0802000000000001E-02  -1.0349000000000001E-02
atom  -5.4116899999999990E-01   3.2586490000000006E+00   2.4797440000000002E+00 Mg   0.0000000000000000E+00   0.0000000000000000E+00  -2.8200000000000002E-04   3.3440000000000002E-03  -4.9880000000000002E-03
atom   2.4805260000000016E+00   1.9137940000000002E+00   7.3150139999999997E+00 Mg   0.0000000000000000E+00   0.0000000000000000E+00   5.5519999999999996E-03  -6.1570000000000001E-03   5.8510000000000003E-03
atom   5.5794200000000025E+00   4.2812690000000000E+00   3.2559990000000001E+00 Mg   0.0000000000000000E+00   0.0000000000000000E+00  -3.5430000000000001E-03  -1.7413000000000001E-02  -8.1609999999999999E-03
atom   8.6502120000000033E+00   9.7064800000000007E-01   7.0275379999999998E+00 Mg   0.0000000000000000E+00   0.0000000000000000E+00  -5.1430000000000000E-03   1.1440000000000001E-02   1.2933000000000000E-02
atom  -3.2308580000000000E+00   8.4932309999999998E+00   2.9441299999999999E+00 Mg   0.0000000000000000E+00   0.0000000000000000E+00   1.5200000000000001E-04   1.8305999999999999E-02   4.1609999999999998E-03
atom  -7.6668099999999983E-01   6.6468220000000002E+00   7.8434059999999999E+00 Mg   0.0000000000000000E+00   0.0000000000000000E+00   3.3080000000000002E-03   4.3829999999999997E-03   2.9210000000000000E-03
atom   2.7138980000000008E+00   8.1284220000000005E+00   2.7708590000000002E+00 Mg   0.0000000000000000E+00   0.0000000000000000E+00   3.0290000000000000E-03   1.1320999999999999E-02   5.5170000000000002E-03
atom   6.2984150000000003E+00   7.5676379999999996E+00   7.7495060000000011E+00 Mg   0.0000000000000000E+00   0.0000000000000000E+00  -2.7580000000000000E-03  -1.6559999999999999E-03  -1.7669999999999999E-03
atom  -4.3617259999999973E+00   9.1404820000000004E+00   2.7617950000000002E+00 Mg   0.0000000000000000E+00   0.0000000000000000E+00   8.6560000000000005E-03   2.0550000000000000E-03  -8.0000000000000007E-05
atom  -9.4770099999999691E-01   6.8948360000000006E+00   7.4552110000000003E+00 Mg   0.0000000000000000E+00   0.0000000000000000E+00  -1.1670000000000001E-03   9.3910000000000000E-03   6.1529999999999996E-03
atom   1.9907980000000005E+00   8.7914809999999992E+00   3.0626720000000001E+00 Mg   0.0000000000000000E+00   0.0000000000000000E+00  -3.1300000000000002E-04   9.0100000000000006E-03  -8.4189999999999994E-03
atom   5.1337280000000058E+00   7.9065820000000011E+00   7.8519790000000000E+00 Mg   0.0000000000000000E+00   0.0000000000000000E+00   6.3000000000000003E-04  -2.5959999999999998E-03   1.1978000000000001E-02
atom   8.1675999999998597E-02   2.9249960000000010E+00   1.9054489999999999E+00 Mg   0.0000000000000000E+00   0.0000000000000000E+00   7.6490000000000004E-03   8.2100000000000001E-04   1.4361000000000001E-02
atom   2.6276179999999991E+00   1.5710360000000008E+00   7.7898649999999998E+00 Mg   0.0000000000000000E+00   0.0000000000000000E+00   1.1299000000000000E-02  -6.8459999999999997E-03  -1.1051999999999999E-02
atom   6.0345619999999993E+00   2.2292140000000016E+00   1.8158879999999999E+00 Mg   0.0000000000000000E+00   0.0000000000000000E+00   8.2690000000000003E-03   2.9550000000000002E-03   9.3900000000000008E-03
atom   1.0078967000000002E+01   1.3325979999999991E+00   7.1238340000000004E+00 Mg   0.0000000000000000E+00   0.0000000000000000E+00  -7.6949999999999996E-03  -3.2620000000000001E-03  -7.0349999999999996E-03
atom  -1.8765199999999735E-01   3.0160490000000011E+00   2.0296289999999999E+00 Mg   0.0000000000000000E+00   0.0000000000000000E+00  -5.3119999999999999E-03  -7.8879999999999992E-03   2.6619999999999999E-03
atom   2.9683560000000018E+00   2.1515029999999999E+00   7.3196860000000008E+00 Mg   0.0000000000000000E+00   0.0000000000000000E+00   9.3999999999999997E-04  -9.8250000000000004E-03  -6.0899999999999999E-03
atom   6.0414440000000029E+00   3.4412159999999998E+00   2.1417970000000000E+00 Mg   0.0000000000000000E+00   0.0000000000000000E+00  -3.0179999999999998E-03  -4.6979999999999999E-03   6.7910000000000002E-03
atom   8.6146920000000033E+00   1.6965500000000007E+00   7.9288249999999998E+00 Mg   0.0000000000000000E+00   0.0000000000000000E+00   2.3240000000000001E-03  -7.9989999999999992E-03  -7.1910000000000003E-03
atom  -2.4299230000000023E+00   8.6235150000000012E+00   2.4798490000000002E+00 Mg   0.0000000000000000E+00   0.0000000000000000E+00  -3.9999999999999998E-06  -1.0989999999999999E-03   2.1099999999999999E-03
atom   4.7173299999999890E-01   6.8155890000000019E+00   7.3152939999999997E+00 Mg   0.0000000000000000E+00   0.0000000000000000E+00  -1.0210000000000000E-03   2.2529999999999998E-03  -8.2500000000000000E-04
atom   3.7464020000000011E+00   8.5478499999999986E+00   2.1183559999999999E+00 Mg   0.0000000000000000E+00   0.0000000000000000E+00  -2.7049999999999999E-03  -6.0700000000000001E-04   8.3280000000000003E-03
atom   6.5873800000000013E+00   6.6675810000000011E+00   7.1313700000000004E+00 Mg   0.0000000000000000E+00   0.0000000000000000E+00  -2.6600000000000001E-04   1.3500000000000000E-04  -5.1710000000000002E-03
atom  -3.1034160000000002E+00   7.7086550000000003E+00   2.3974739999999999E+00 Mg   0.0000000000000000E+00   0.0000000000000000E+00  -1.2736000000000001E-02   7.2100000000000003E-03  -1.2270000000000000E-03
atom  -4.8217900000000002E-01   6.5212310000000002E+00   7.5999980000000003E+00 Mg   0.0000000000000000E+00   0.0000000000000000E+00  -1.6700000000000000E-03   5.7739999999999996E-03   7.4299999999999995E-04
atom   2.4979950000000013E+00   7.8046740000000003E+00   2.6844250000000005E+00 Mg   0.0000000000000000E+00   0.0000000000000000E+00   7.4300000000000000E-03   4.3930000000000002E-03  -9.7540000000000005E-03
atom   6.4690360000000018E+00   6.8283420000000028E+00   7.1835490000000002E+00 Mg   0.0000000000000000E+00   0.0000000000000000E+00  -2.5360000000000001E-03  -6.0999999999999999E-05   5.6750000000000004E-03
atom  -1.5646100000000016E-01   3.0948410000000006E+00   2.1905829999999993E+00 Mg   0.0000000000000000E+00   0.0000000000000000E+00   6.6540000000000002E-03   1.1495999999999999E-02  -4.7540000000000004E-03
atom   3.3394880000000002E+00   1.6614050000000002E+00   7.1438119999999996E+00 Mg   0.0000000000000000E+00   0.0000000000000000E+00   2.4030000000000002E-03   1.4002000000000001E-02  -1.3829999999999999E-03
atom   7.1785180000000031E+00   3.5608370000000003E+00   1.2493700000000001E+00 Mg   0.0000000000000000E+00   0.0000000000000000E+00  -1.1575000000000000E-02   1.3519999999999999E-03   9.5639999999999996E-03
atom   9.1832510000000021E+00   2.1660140000000001E+00   6.4331459999999980E+00 Mg   0.0000000000000000E+00   0.0000000000000000E+00   3.3500000000000001E-03  -2.7309999999999999E-03   1.5839999999999999E-03
atom  -3.6635699999999760E-01   3.2969950000000003E+00   1.6569839999999991E+00 Mg   0.0000000000000000E+00   0.0000000000000000E+00  -2.6270000000000000E-03   7.9939999999999994E-03   3.4619999999999998E-03
atom   2.0313920000000052E+00   1.4380050000000000E+00   7.1217179999999987E+00 Mg   0.0000000000000000E+00   0.0000000000000000E+00   7.1939999999999999E-03   4.2620000000000002E-03  -1.7740000000000000E-03
atom   5.2505120000000032E+00   3.5666390000000003E+00   2.3511319999999993E+00 Mg   0.0000000000000000E+00   0.0000000000000000E+00   8.5179999999999995E-03  -1.5440000000000000E-03  -4.9750000000000003E-03
atom   9.1845390000000044E+00   1.9047490000000002E+00   7.1715330000000028E+00 Mg   0.0000000000000000E+00   0.0000000000000000E+00  -1.6693000000000000E-02  -9.8799999999999995E-04  -5.6490000000000004E-03
atom  -2.3396260000000009E+00   9.2521129999999996E+00   2.5458350000000016E+00 Mg   0.0000000000000000E+00   0.0000000000000000E+00  -7.0790000000000002E-03  -7.0109999999999999E-03  -1.3228000000000000E-02
atom  -6.8238799999999999E-01   7.4460350000000011E+00   7.5592510000000024E+00 Mg   0.0000000000000000E+00   0.0000000000000000E+00   1.2659000000000000E-02  -1.2869999999999999E-03  -7.2080000000000000E-03
atom   3.4511190000000012E+00   8.2890900000000016E+00   2.2045270000000010E+00 Mg   0.0000000000000000E+00   0.0000000000000000E+00  -9.5169999999999994E-03  -1.7940000000000000E-03  -4.7289999999999997E-03
atom   6.1189939999999998E+00   7.2811490000000010E+00   7.0579230000000015E+00 Mg   0.0000000000000000E+00   0.0000000000000000E+00   5.5999999999999995E-04  -8.0579999999999992E-03   4.4209999999999996E-03
atom  -4.0942079999999983E+00   8.9930339999999998E+00   2.2004940000000000E+00 Mg   0.0000000000000000E+00   0.0000000000000000E+00   1.5367000000000000E-02  -3.3700000000000002E-03  -2.4550000000000002E-03
atom  -4.5605299999999610E-01   7.1625410000000009E+00   6.9454149999999988E+00 Mg   0.0000000000000000E+00   0.0000000000000000E+00  -7.7079999999999996E-03  -2.8089999999999999E-03   6.2210000000000000E-03
atom   2.9706520000000030E+00   8.9132090000000002E+00   2.8330760000000006E+00 Mg   0.0000000000000000E+00   0.0000000000000000E+00  -5.7980000000000002E-03   4.1180000000000001E-03  -1.5857000000000000E-02
atom   5.4761010000000017E+00   7.0961260000000008E+00   7.3527140000000006E+00 Mg   0.0000000000000000E+00   0.0000000000000000E+00   3.0000000000000001E-05  -3.3730000000000001E-03   8.3269999999999993E-03
atom   5.8479999999999310E-02   2.9868779999999995E+00   1.9026150000000008E+00 Mg   0.0000000000000000E+00   0.0000000000000000E+00  -1.6199999999999999E-03   4.0679999999999996E-03   3.2940000000000001E-03
atom   3.8093689999999998E+00   1.7794729999999996E+00   6.2116810000000022E+00 Mg   0.0000000000000000E+00   0.0000000000000000E+00  -5.4099999999999999E-03   4.8400000000000000E-04   3.4619999999999998E-03
atom   6.8421649999999996E+00   3.4090420000000003E+00   1.3532690000000021E+00 Mg   0.0000000000000000E+00   0.0000000000000000E+00   4.6800000000000001E-03  -1.0038000000000000E-02   6.1240000000000001E-03
atom   9.7317900000000002E+00   6.8840200000000207E-01   6.7190470000000024E+00 Mg   0.0000000000000000E+00   0.0000000000000000E+00  -8.6420000000000004E-03   1.1730000000000000E-03  -1.3950000000000000E-03
atom  -2.1491699999999930E-01   2.4762079999999997E+00   1.4630480000000019E+00 Mg   0.0000000000000000E+00   0.0000000000000000E+00  -8.3029999999999996E-03   1.2530000000000000E-03   8.2600000000000002E-04
atom   2.4680100000000009E+00   9.2798200000000042E-01   6.9799289999999994E+00 Mg   0.0000000000000000E+00   0.0000000000000000E+00   9.5289999999999993E-03   6.1700000000000004E-04  -3.6740000000000002E-03
atom   5.3737850000000025E+00   3.4008920000000007E+00   1.9341810000000006E+00 Mg   0.0000000000000000E+00   0.0000000000000000E+00   7.7700000000000000E-03  -5.2690000000000002E-03   5.9860000000000000E-03
atom   8.7742010000000032E+00   1.2242149999999987E+00   7.1705090000000018E+00 Mg   0.0000000000000000E+00   0.0000000000000000E+00  -2.5880000000000000E-03  -2.3059999999999999E-03  -1.1024000000000001E-02
atom  -2.2437900000000024E+00   8.5756730000000019E+00   2.5527050000000000E+00 Mg   0.0000000000000000E+00   0.0000000000000000E+00  -3.5290000000000000E-03   8.8999999999999995E-05  -1.7513999999999998E-02
atom   5.4379199999999905E-01   6.7878670000000021E+00   6.8460820000000018E+00 Mg   0.0000000000000000E+00   0.0000000000000000E+00   1.6329999999999999E-03  -2.6150000000000001E-03   2.7680000000000001E-03
atom   3.6506050000000014E+00   7.9266780000000017E+00   1.5645670000000012E+00 Mg   0.0000000000000000E+00   0.0000000000000000E+00  -5.7260000000000002E-03   5.4339999999999996E-03   4.4359999999999998E-03
atom   6.2923009999999984E+00   6.9525610000000038E+00   6.7982020000000016E+00 Mg   0.0000000000000000E+00   0.0000000000000000E+00   6.8760000000000002E-03  -6.2890000000000003E-03  -4.5909999999999996E-03
atom  -3.6649559999999992E+00   8.3989609999999981E+00   1.5042600000000006E+00 Mg   0.0000000000000000E+00   0.0000000000000000E+00   7.9819999999999995E-03   1.6699999999999999E-04   6.0889999999999998E-03
atom  -8.4216299999999866E-01   5.6275630000000021E+00   6.0644749999999989E+00 Mg   0.0000000000000000E+00   0.0000000000000000E+00   1.3610000000000000E-03   1.2533000000000001E-02   5.2630000000000003E-03
atom   3.0242370000000003E+00   8.4792570000000005E+00   1.9906029999999999E+00 Mg   0.0000000000000000E+00   0.0000000000000000E+00  -1.0123999999999999E-02  -1.6520000000000000E-03  -4.4759999999999999E-03
atom   6.1103990000000010E+00   7.0660189999999998E+00   6.8692520000000012E+00 Mg   0.0000000000000000E+00   0.0000000000000000E+00  -4.7200000000000002E-03  -9.6279999999999994E-03   4.6340000000000001E-03
energy  -5.6169867000000004E+01
charge   0.0000000000000000E+00
end
begin
comment  i =      290, time =      145.000, E =       -55.9655378756
lattice   1.3028867999999999E+01   0.0000000000000000E+00   0.0000000000000000E+00
lattice  -6.5144339999999996E+00   1.1283331000000000E+01   0.0000000000000000E+00
lattice   0.0000000000000000E+00   0.0000000000000000E+00   1.0462590000000001E+01
atom  -6.9216300000000008E-01   3.5413140000000012E+00   3.8561330000000007E+00 Mg   0.0000000000000000E+00   0.0000000000000000E+00   1.7260000000000001E-03   1.2200000000000000E-04  -5.3899999999999998E-04
atom   1.0104569999999999E+00   1.1305190000000005E+00   9.2445570000000021E+00 Mg   0.0000000000000000E+00   0.0000000000000000E+00  -1.5399999999999999E-03   5.2069999999999998E-03  -6.7609999999999996E-03
atom   4.8411070000000009E+00   3.5710180000000014E+00   4.2736989999999997E+00 Mg   0.0000000000000000E+00   0.0000000000000000E+00   1.0600000000000000E-04  -5.2540000000000000E-03  -8.1099999999999998E-04
atom   9.7546600000000012E+00   2.1208570000000004E+00   7.5916190000000014E+00 Mg   0.0000000000000000E+00   0.0000000000000000E+00  -6.8690000000000001E-03   2.7220000000000000E-03  -4.1729999999999996E-03
atom   1.0504217000000002E+01   3.6108160000000007E+00   2.0736150000000002E+00 Mg   0.0000000000000000E+00   0.0000000000000000E+00   6.1069999999999996E-03  -3.5149999999999999E-03   2.2655000000000002E-02
atom   2.0985820000000008E+00   3.4401750000000013E+00   6.9776640000000008E+00 Mg   0.0000000000000000E+00   0.0000000000000000E+00  -2.6389999999999999E-03  -9.0489999999999998E-03  -3.5650000000000000E-03
atom   4.7337260000000017E+00   4.8557110000000021E+00   8.3143900000000026E-01 Mg   0.0000000000000000E+00   0.0000000000000000E+00  -1.1117000000000000E-02   1.1169000000000000E-02   9.9989999999999992E-03
atom   5.7498300000000038E+00   9.0571400000000024E-01   4.1686530000000008E+00 Mg   0.0000000000000000E+00   0.0000000000000000E+00   5.4060000000000002E-03   4.8989999999999997E-03   1.3353000000000000E-02
atom  -1.4535410000000000E+00   9.6702710000000014E+00   2.8158270000000005E+00 Mg   0.0000000000000000E+00   0.0000000000000000E+00  -3.4299999999999999E-03   3.3790000000000001E-03   4.7100000000000001E-04
atom   1.6557640000000005E+00   7.5205150000000014E+00   7.7470290000000022E+00 Mg   0.0000000000000000E+00   0.0000000000000000E+00  -2.4940000000000001E-03  -6.0410000000000004E-03  -1.8400000000000000E-04
atom   4.0246880000000020E+00   9.5000280000000039E+00   2.3747160000000003E+00 Mg   0.0000000000000000E+00   0.0000000000000000E+00   7.2630000000000004E-03  -1.7240000000000001E-03  -4.9789999999999999E-03
atom   7.5463590000000016E+00   7.8612480000000016E+00   6.2777610000000008E+00 Mg   0.0000000000000000E+00   0.0000000000000000E+00  -3.8299999999999999E-04   7.0399999999999998E-04   1.8404000000000000E-02
atom  -2.8260439999999973E+00   8.8774580000000043E+00   1.7058520000000001E+00 Mg   0.0000000000000000E+00   0.0000000000000000E+00   1.1000000000000001E-03  -5.4469999999999996E-03   2.6760000000000000E-03
atom   2.4992200000000447E-01   8.1740710000000032E+00   7.4166420000000013E+00 Mg   0.0000000000000000E+00   0.0000000000000000E+00  -1.2265000000000000E-02   5.1450000000000003E-03  -5.4749999999999998E-03
atom   3.3096680000000034E+00   9.8719190000000019E+00   2.4126240000000005E+00 Mg   0.0000000000000000E+00   0.0000000000000000E+00   6.0800000000000003E-03  -1.5280000000000001E-03   6.6249999999999998E-03
atom   6.8672110000000011E+00   6.8420850000000026E+00   5.7526950000000010E+00 Mg   0.0000000000000000E+00   0.0000000000000000E+00  -1.0129000000000001E-02   4.4739999999999997E-03   1.1339000000000000E-02
atom   3.5875900000000027E-01   3.8021080000000027E+00   3.0916730000000006E+00 Mg   0.0000000000000000E+00   0.0000000000000000E+00  -3.1700000000000001E-04  -1.3929000000000000E-02  -3.4900000000000003E-04
atom   3.8599249999999987E+00   1.1962750000000042E+00   8.0131130000000024E+00 Mg   0.0000000000000000E+00   0.0000000000000000E+00  -3.4819999999999999E-03   3.7399999999999998E-04   1.5440000000000000E-03
atom   5.9841480000000002E+00   3.9718200000000028E+00   3.1987640000000002E+00 Mg   0.0000000000000000E+00   0.0000000000000000E+00  -1.6350000000000000E-03  -7.8490000000000001E-03  -5.9500000000000004E-03
atom   9.5811309999999974E+00   1.9866390000000054E+00   7.5339870000000007E+00 Mg   0.0000000000000000E+00   0.0000000000000000E+00   4.2890000000000003E-03   3.0349999999999999E-03   1.5759999999999999E-03
atom  -1.7075580000000001E+00   4.2793410000000041E+00   1.9756830000000003E+00 Mg   0.0000000000000000E+00   0.0000000000000000E+00   1.1476999999999999E-02   4.6100000000000004E-03   3.6170000000000000E-03
atom   2.6971199999999995E+00   2.3047750000000033E+00   6.2703860000000011E+00 Mg   0.0000000000000000E+00   0.0000000000000000E+00   3.1510000000000002E-03  -1.5953999999999999E-02   1.3820000000000000E-03
atom   5.7233290000000006E+00   2.4303530000000038E+00   1.5720180000000004E+00 Mg   0.0000000000000000E+00   0.0000000000000000E+00   7.3829999999999998E-03   1.8248000000000000E-02  -7.1570000000000002E-03
atom   8.7191640000000046E+00   1.8655850000000036E+00   7.0262400000000005E+00 Mg   0.0000000000000000E+00   0.0000000000000000E+00   1.4180000000000000E-03   4.5820000000000001E-03   5.4180000000000001E-03
atom  -3.7281370000000007E+00   7.7345380000000059E+00   5.1140310000000007E+00 Mg   0.0000000000000000E+00   0.0000000000000000E+00   6.2960000000000004E-03  -5.8520000000000004E-03   1.7300000000000000E-04
atom   5.5079699999999743E-01   6.1337060000000063E+00   8.3653920000000017E+00 Mg   0.0000000000000000E+00   0.0000000000000000E+00  -1.6630000000000000E-03   6.1230000000000000E-03   5.5519999999999996E-03
atom   2.5345889999999986E+00   8.5092170000000049E+00   3.3399820000000005E+00 Mg   0.0000000000000000E+00   0.0000000000000000E+00  -3.0200000000000001E-03   1.0992999999999999E-02  -6.2849999999999998E-03
atom   7.3408760000000006E+00   7.9887800000000038E+00   6.4355940000000009E+00 Mg   0.0000000000000000E+00   0.0000000000000000E+00  -6.6319999999999999E-03  -2.4050000000000000E-03  -2.8618000000000001E-02
atom  -3.6093220000000010E+00   1.0343187000000007E+01   3.4399500000000005E-01 Mg   0.0000000000000000E+00   0.0000000000000000E+00  -1.1213000000000001E-02  -1.0201999999999999E-02  -3.8000000000000002E-05
atom   5.0511100000000198E-01   6.8564800000000057E+00   7.4065970000000005E+00 Mg   0.0000000000000000E+00   0.0000000000000000E+00   8.1049999999999994E-03   5.8079999999999998E-03   1.2100000000000000E-04
atom   3.5427400000000002E+00   7.8374510000000051E+00   2.1834450000000003E+00 Mg   0.0000000000000000E+00   0.0000000000000000E+00  -8.4099999999999995E-04  -2.0434000000000001E-02  -6.8120000000000003E-03
atom   5.5573620000000039E+00   4.7787980000000028E+00   5.9828199999999965E-01 Mg   0.0000000000000000E+00   0.0000000000000000E+00   1.9651999999999999E-02   2.3517000000000000E-02  -2.6991999999999999E-02
atom  -4.6870000000000375E-03   3.7325760000000012E+00   3.7156380000000016E+00 Mg   0.0000000000000000E+00   0.0000000000000000E+00   4.8669999999999998E-03  -6.5040000000000002E-03  -9.2479999999999993E-03
atom   2.6226310000000006E+00   9.2927200000000032E-01   8.6754560000000023E+00 Mg   0.0000000000000000E+00   0.0000000000000000E+00  -4.9659999999999999E-03   3.3319999999999999E-03   3.1070000000000000E-03
atom   5.9894800000000004E+00   3.7107320000000010E+00   9.4154099999999941E-01 Mg   0.0000000000000000E+00   0.0000000000000000E+00  -1.4746000000000000E-02   6.2969999999999996E-03  -4.5160000000000000E-03
atom   7.9796900000000006E+00   1.3179620000000005E+00   7.4545040000000000E+00 Mg   0.0000000000000000E+00   0.0000000000000000E+00  -1.9000000000000000E-03  -5.8919999999999997E-03  -1.8398999999999999E-02
atom   1.1182950000000002E+01   3.0045650000000004E+00   2.2174500000000013E+00 Mg   0.0000000000000000E+00   0.0000000000000000E+00   1.2283000000000001E-02  -3.7669999999999999E-03   5.3140000000000001E-03
atom   3.8510210000000025E+00   1.8079320000000005E+00   4.1425690000000017E+00 Mg   0.0000000000000000E+00   0.0000000000000000E+00   4.3700000000000000E-04   2.5060000000000000E-03   6.8149999999999999E-03
atom   6.6072760000000033E+00   3.9166700000000012E+00   1.0095412000000001E+01 Mg   0.0000000000000000E+00   0.0000000000000000E+00   2.8524999999999998E-02  -2.3082999999999999E-02  -4.3600000000000003E-04
atom   8.6919430000000020E+00   1.8830350000000007E+00   8.2755760000000009E+00 Mg   0.0000000000000000E+00   0.0000000000000000E+00  -4.2909999999999997E-03  -2.0019999999999999E-03  -2.0046999999999999E-02
atom  -2.1098460000000001E+00   8.5198470000000022E+00   1.5757459999999994E+00 Mg   0.0000000000000000E+00   0.0000000000000000E+00  -1.5880000000000000E-03   7.9570000000000005E-03  -2.8560000000000000E-03
atom  -8.7680000000004976E-03   7.3950920000000027E+00   7.4414220000000029E+00 Mg   0.0000000000000000E+00   0.0000000000000000E+00   2.2109000000000000E-02  -8.1999999999999998E-04   9.0760000000000007E-03
atom   3.6718720000000005E+00   1.0004978000000001E+01   2.2636370000000006E+00 Mg   0.0000000000000000E+00   0.0000000000000000E+00  -3.2750000000000001E-03  -7.3179999999999999E-03  -4.4130000000000003E-03
atom   5.6517039999999996E+00   6.1982150000000029E+00   6.5438780000000021E+00 Mg   0.0000000000000000E+00   0.0000000000000000E+00  -2.2790000000000002E-03  -1.1730000000000000E-03   2.1210000000000001E-03
atom  -3.7213169999999973E+00   8.1424780000000023E+00   1.8672400000000007E+00 Mg   0.0000000000000000E+00   0.0000000000000000E+00  -4.3210000000000002E-03  -6.8000000000000005E-04  -8.5899999999999995E-04
atom  -2.2371199999999658E-01   5.0797580000000018E+00   6.8961780000000026E+00 Mg   0.0000000000000000E+00   0.0000000000000000E+00   7.9500000000000003E-04   2.6310000000000001E-03  -4.7840000000000001E-03
atom   2.9255480000000027E+00   6.5584450000000016E+00   1.5294700000000012E+00 Mg   0.0000000000000000E+00   0.0000000000000000E+00  -1.2041000000000000E-02   1.8568999999999999E-02   1.2550000000000000E-02
atom   6.8122830000000025E+00   6.8423870000000022E+00   6.0474940000000004E+00 Mg   0.0000000000000000E+00   0.0000000000000000E+00  -1.7149000000000001E-02   1.8410000000000000E-03  -1.9243000000000000E-02
atom   7.3923199999999967E-01   2.2689520000000014E+00   2.5103200000000006E+00 Mg   0.0000000000000000E+00   0.0000000000000000E+00  -9.3629999999999998E-03  -2.2300000000000002E-03  -2.6129999999999999E-03
atom   3.2544480000000000E+00   9.4238200000000316E-01   7.4070169999999989E+00 Mg   0.0000000000000000E+00   0.0000000000000000E+00  -7.9070000000000008E-03   6.1869999999999998E-03   3.6059999999999998E-03
atom   6.4732500000000002E+00   3.4482670000000035E+00   3.0334430000000019E+00 Mg   0.0000000000000000E+00   0.0000000000000000E+00   7.5519999999999997E-03  -1.0867999999999999E-02  -1.1578000000000000E-02
atom   9.0362989999999996E+00   1.2898010000000031E+00   7.1281730000000012E+00 Mg   0.0000000000000000E+00   0.0000000000000000E+00   2.2740000000000000E-03   8.5000000000000006E-05   9.8029999999999992E-03
atom   4.9607799999999941E-01   3.3570220000000037E+00   1.7869150000000003E+00 Mg   0.0000000000000000E+00   0.0000000000000000E+00  -6.8640000000000003E-03  -7.3930000000000003E-03  -4.9719999999999999E-03
atom  -4.7907459999999977E+00   1.1206868000000004E+01   6.8366950000000042E+00 Mg   0.0000000000000000E+00   0.0000000000000000E+00  -4.5269999999999998E-03   1.2591000000000000E-02  -8.3129999999999992E-03
atom   6.7583390000000030E+00   2.3474400000000328E-01   1.5549400000000015E+00 Mg   0.0000000000000000E+00   0.0000000000000000E+00   8.8870000000000008E-03  -1.0796999999999999E-02   4.4419999999999998E-03
atom   1.9128330000000024E+00   1.0150090000000004E+01   6.5651350000000024E+00 Mg   0.0000000000000000E+00   0.0000000000000000E+00   4.7099999999999998E-03   9.7050000000000001E-03  -6.2049999999999996E-03
atom  -1.7100550000000012E+00   9.0915780000000037E+00   3.1138030000000003E+00 Mg   0.0000000000000000E+00   0.0000000000000000E+00  -2.1559999999999999E-03  -7.7070000000000003E-03   7.9600000000000005E-04
atom  -6.1178400000000077E-01   5.9052940000000023E+00   7.5458570000000025E+00 Mg   0.0000000000000000E+00   0.0000000000000000E+00  -2.5130000000000000E-03  -5.4079999999999996E-03  -2.6359999999999999E-03
atom   4.2460219999999991E+00   7.8841850000000049E+00   1.6415670000000007E+00 Mg   0.0000000000000000E+00   0.0000000000000000E+00  -1.2278000000000001E-02   7.7190000000000002E-03   7.2300000000000001E-04
atom   5.4288889999999999E+00   6.9870680000000061E+00   7.3689750000000034E+00 Mg   0.0000000000000000E+00   0.0000000000000000E+00   2.0330000000000001E-03  -7.7450000000000001E-03  -9.7300000000000002E-04
atom  -3.5420629999999989E+00   8.0222030000000064E+00   1.3541600000000001E-01 Mg   0.0000000000000000E+00   0.0000000000000000E+00   1.3202000000000000E-02   3.7090000000000001E-03   3.7962000000000003E-02
atom  -1.5899029999999981E+00   6.5885840000000062E+00   5.9023190000000030E+00 Mg   0.0000000000000000E+00   0.0000000000000000E+00   2.4450000000000001E-03  -3.8200000000000000E-03   1.3580000000000000E-03
atom   2.8316600000000012E+00   8.8749080000000031E+00   1.9315310000000008E+00 Mg   0.0000000000000000E+00   0.0000000000000000E+00  -1.5235000000000000E-02   1.5571000000000000E-02   1.0018000000000001E-02
atom   4.3678200000000009E+00   5.0083700000000047E+00   5.7478680000000013E+00 Mg   0.0000000000000000E+00   0.0000000000000000E+00   7.3879999999999996E-03   2.5829999999999998E-03   1.8182000000000000E-02
energy  -5.5965538000000002E+01
charge   0.0000000000000000E+00
end
begin
comment  i =     6510, time =     3255.000, E =       -56.1783730193
lattice   1.3172727999999999E+01   0.0000000000000000E+00   0.0000000000000000E+00
lattice  -6.5863639999999997E+00   1.1407916999999999E+01   0.0000000000000000E+00
lattice   0.0000000000000000E+00   0.0000000000000000E+00   1.0578113999999999E+01
atom   2.0919700000000008E-01   4.1193850000000003E+00   2.8162050000000001E+00 Mg   0.0000000000000000E+00   0.0000000000000000E+00  -3.5230000000000001E-03  -3.2429999999999998E-03  -4.4169999999999999E-03
atom   3.1251330000000004E+00   1.9981150000000001E+00   7.1263820000000013E+00 Mg   0.0000000000000000E+00   0.0000000000000000E+00  -4.7199999999999998E-04   1.4250000000000001E-03   1.3271000000000000E-02
atom   5.9156300000000002E+00   3.1946430000000006E+00   2.3777279999999998E+00 Mg   0.0000000000000000E+00   0.0000000000000000E+00   2.2070000000000002E-03   8.2819999999999994E-03  -3.8930000000000002E-03
atom   9.0994510000000020E+00   2.1424840000000001E+00   7.2291090000000011E+00 Mg   0.0000000000000000E+00   0.0000000000000000E+00  -2.6120000000000002E-03  -2.5209999999999998E-03   1.0196000000000000E-02
atom  -7.6716599999999902E-01   3.3452690000000000E+00   2.9547610000000000E+00 Mg   0.0000000000000000E+00   0.0000000000000000E+00   2.7190000000000001E-03  -1.2220000000000000E-03  -1.4840000000000001E-02
atom   2.2585349999999988E+00   1.5131150000000000E+00   7.3768770000000004E+00 Mg   0.0000000000000000E+00   0.0000000000000000E+00   3.0149999999999999E-03   3.2910000000000001E-03   9.6410000000000003E-03
atom   5.3242030000000016E+00   3.7901880000000001E+00   2.5224419999999999E+00 Mg   0.0000000000000000E+00   0.0000000000000000E+00   3.2840000000000000E-03  -1.2780000000000001E-03  -5.4339999999999996E-03
atom   8.6924160000000050E+00   2.7116430000000000E+00   7.2056190000000013E+00 Mg   0.0000000000000000E+00   0.0000000000000000E+00   9.6400000000000001E-04  -1.3134000000000000E-02   9.4039999999999992E-03
atom  -2.9626450000000002E+00   9.0772659999999998E+00   2.5478390000000002E+00 Mg   0.0000000000000000E+00   0.0000000000000000E+00   1.8170000000000000E-03  -3.8600000000000000E-04  -7.0410000000000004E-03
atom  -4.6362000000000222E-02   8.5199850000000001E+00   7.4516460000000002E+00 Mg   0.0000000000000000E+00   0.0000000000000000E+00   9.2239999999999996E-03  -7.0250000000000000E-03   5.3359999999999996E-03