begin
comment  i =     4890, time =     2445.000, E =       -56.1723182098
lattice   1.3186957000000000E+01   0.0000000000000000E+00   0.0000000000000000E+00
lattice  -6.5934790000000003E+00   1.1420240000000000E+01   0.0000000000000000E+00
lattice   0.0000000000000000E+00   0.0000000000000000E+00   1.0589541000000001E+01
atom  -1.7310500000000045E-01   3.4874580000000002E+00   2.2713169999999998E+00 Mg   0.0000000000000000E+00   0.0000000000000000E+00   1.6000000000000001E-03  -4.8060000000000004E-03   7.3899999999999999E-03
atom   2.9890099999999995E+00   2.1358619999999995E+00   7.7490810000000003E+00 Mg   0.0000000000000000E+00   0.0000000000000000E+00   5.3020000000000003E-03  -1.1450000000000000E-03  -3.4859999999999999E-03
atom   6.3398489999999983E+00   3.9112109999999998E+00   2.6095579999999998E+00 Mg   0.0000000000000000E+00   0.0000000000000000E+00   9.0000000000000002E-06  -9.6959999999999998E-03   8.9599999999999999E-04
atom   9.4393259999999959E+00   2.0049299999999999E+00   7.4178360000000003E+00 Mg   0.0000000000000000E+00   0.0000000000000000E+00   1.9589999999999998E-03  -9.0880000000000006E-03  -1.2531000000000000E-02
atom  -5.2034200000000308E-01   3.1940979999999994E+00   2.3685120000000000E+00 Mg   0.0000000000000000E+00   0.0000000000000000E+00   2.1900000000000001E-04   7.0879999999999997E-03  -6.2799999999999998E-04
atom   2.4708629999999965E+00   1.8927289999999999E+00   7.3372299999999999E+00 Mg   0.0000000000000000E+00   0.0000000000000000E+00   4.0870000000000004E-03  -6.0239999999999998E-03   5.7549999999999997E-03
atom   5.5615939999999977E+00   4.2598379999999993E+00   3.2973840000000001E+00 Mg   0.0000000000000000E+00   0.0000000000000000E+00  -1.6400000000000000E-04  -9.3150000000000004E-03  -7.4339999999999996E-03
atom   8.6989599999999943E+00   9.2736999999999992E-01   6.9573339999999995E+00 Mg   0.0000000000000000E+00   0.0000000000000000E+00  -7.1139999999999997E-03   1.3945000000000001E-02   1.3840999999999999E-02
atom  -3.0672459999999990E+00   8.6331509999999980E+00   3.0784710000000000E+00 Mg   0.0000000000000000E+00   0.0000000000000000E+00  -5.9249999999999997E-03   1.1523000000000000E-02   3.5699999999999998E-03
atom  -7.5171999999999972E-01   6.6668729999999989E+00   7.9666409999999992E+00 Mg   0.0000000000000000E+00   0.0000000000000000E+00   2.8490000000000000E-03   3.7450000000000001E-03   8.1000000000000004E-05
atom   2.7886899999999986E+00   8.2468609999999991E+00   2.6820230000000000E+00 Mg   0.0000000000000000E+00   0.0000000000000000E+00   6.2100000000000002E-04   1.1905000000000001E-02   5.3480000000000003E-03
atom   6.2231349999999974E+00   7.4342629999999978E+00   7.6407589999999992E+00 Mg   0.0000000000000000E+00   0.0000000000000000E+00  -1.0440000000000000E-03  -8.7799999999999998E-04   9.2999999999999997E-05
atom  -4.2086269999999999E+00   9.1553359999999984E+00   2.7710639999999995E+00 Mg   0.0000000000000000E+00   0.0000000000000000E+00   7.8670000000000007E-03   9.7999999999999997E-05  -4.7600000000000002E-04
atom  -8.5594400000000270E-01   7.0194949999999992E+00   7.4610019999999997E+00 Mg   0.0000000000000000E+00   0.0000000000000000E+00  -2.1010000000000000E-03   6.7190000000000001E-03   4.4289999999999998E-03
atom   2.0613679999999972E+00   8.9568519999999978E+00   2.9068019999999999E+00 Mg   0.0000000000000000E+00   0.0000000000000000E+00  -3.2899999999999997E-04   5.4260000000000003E-03  -3.7480000000000000E-03
atom   5.0922779999999968E+00   8.1401989999999991E+00   7.9216030000000002E+00 Mg   0.0000000000000000E+00   0.0000000000000000E+00   2.0190000000000000E-03  -6.7580000000000001E-03   8.4630000000000000E-03
atom   1.0114200000000179E-01   2.9588089999999982E+00   1.9762249999999999E+00 Mg   0.0000000000000000E+00   0.0000000000000000E+00   5.0600000000000003E-03  -4.5000000000000003E-05   1.4486000000000001E-02
atom   2.6528660000000013E+00   1.5751119999999985E+00   7.6248609999999992E+00 Mg   0.0000000000000000E+00   0.0000000000000000E+00   1.3539000000000001E-02  -6.9239999999999996E-03  -8.7860000000000004E-03
atom   6.0084089999999994E+00   2.2908049999999993E+00   1.7499549999999999E+00 Mg   0.0000000000000000E+00   0.0000000000000000E+00   1.1538000000000000E-02   4.2100000000000002E-03   1.6440000000000000E-02
atom   1.0141034999999999E+01   1.2506780000000002E+00   7.2159800000000001E+00 Mg   0.0000000000000000E+00   0.0000000000000000E+00  -8.0269999999999994E-03  -1.7970000000000000E-03  -7.3969999999999999E-03
atom   8.4559999999995975E-03   3.0089729999999988E+00   2.0359310000000002E+00 Mg   0.0000000000000000E+00   0.0000000000000000E+00  -1.1599999999999999E-02  -9.7669999999999996E-03   1.1709999999999999E-03
atom   3.0040499999999986E+00   2.1765399999999988E+00   7.1635270000000002E+00 Mg   0.0000000000000000E+00   0.0000000000000000E+00  -5.9199999999999997E-04  -1.0149000000000000E-02  -1.0660000000000001E-03
atom   5.9206009999999987E+00   3.3123249999999982E+00   2.0733779999999999E+00 Mg   0.0000000000000000E+00   0.0000000000000000E+00   1.9930000000000000E-03  -4.8789999999999997E-03   7.4679999999999998E-03
atom   8.6911069999999953E+00   1.6828090000000002E+00   7.9080550000000001E+00 Mg   0.0000000000000000E+00   0.0000000000000000E+00  -1.4440000000000000E-03  -4.3740000000000003E-03  -8.4600000000000005E-03
atom  -2.3543819999999993E+00   8.5604229999999983E+00   2.4433509999999998E+00 Mg   0.0000000000000000E+00   0.0000000000000000E+00  -1.8460000000000000E-03   4.2999999999999999E-04   4.8970000000000003E-03
atom   5.8896200000000176E-01   6.6729279999999962E+00   7.3488409999999993E+00 Mg   0.0000000000000000E+00   0.0000000000000000E+00  -6.0130000000000001E-03   6.3930000000000002E-03  -2.4800000000000000E-03
atom   3.7507320000000006E+00   8.7032689999999953E+00   2.1057419999999998E+00 Mg   0.0000000000000000E+00   0.0000000000000000E+00  -2.4710000000000001E-03  -4.1339999999999997E-03   9.5729999999999999E-03
atom   6.5845950000000002E+00   6.5669029999999973E+00   7.2483429999999993E+00 Mg   0.0000000000000000E+00   0.0000000000000000E+00   1.0770000000000000E-03   1.4599999999999999E-03  -9.5870000000000000E-03
atom  -3.1182590000000001E+00   7.6877649999999962E+00   2.4194270000000002E+00 Mg   0.0000000000000000E+00   0.0000000000000000E+00  -1.2930000000000001E-02   6.2700000000000004E-03  -1.5960000000000000E-03
atom  -5.3585800000000028E-01   6.5293839999999994E+00   7.4394509999999991E+00 Mg   0.0000000000000000E+00   0.0000000000000000E+00  -7.2199999999999999E-04   3.0750000000000000E-03   5.4660000000000004E-03
atom   2.5008469999999976E+00   7.6395279999999977E+00   2.7080669999999993E+00 Mg   0.0000000000000000E+00   0.0000000000000000E+00   8.8769999999999995E-03   1.0583000000000000E-02  -1.1398999999999999E-02
atom   6.3043819999999977E+00   6.9065469999999962E+00   7.1492279999999990E+00 Mg   0.0000000000000000E+00   0.0000000000000000E+00   5.1910000000000003E-03  -4.0439999999999999E-03   7.1710000000000003E-03
atom   9.0959999999998646E-03   3.2393099999999997E+00   2.2069519999999998E+00 Mg   0.0000000000000000E+00   0.0000000000000000E+00   4.8110000000000002E-03   7.7400000000000004E-03  -4.7850000000000002E-03
atom   3.2346079999999997E+00   1.6404170000000000E+00   7.0569050000000004E+00 Mg   0.0000000000000000E+00   0.0000000000000000E+00   2.3080000000000002E-03   1.3509999999999999E-02   1.2680000000000000E-03
atom   7.1444689999999982E+00   3.6165569999999989E+00   1.2937189999999981E+00 Mg   0.0000000000000000E+00   0.0000000000000000E+00  -1.0068000000000001E-02  -1.8360000000000000E-03   1.1490000000000000E-02
atom   9.1387229999999988E+00   2.1927749999999997E+00   6.5592819999999978E+00 Mg   0.0000000000000000E+00   0.0000000000000000E+00   3.8939999999999999E-03  -2.9800000000000000E-03  -1.7940000000000000E-03
atom  -2.9599700000000240E-01   3.3538899999999994E+00   1.6812309999999986E+00 Mg   0.0000000000000000E+00   0.0000000000000000E+00  -4.8820000000000001E-03   4.8659999999999997E-03   3.2590000000000002E-03
atom   2.0084369999999994E+00   1.3284709999999997E+00   7.0853450000000002E+00 Mg   0.0000000000000000E+00   0.0000000000000000E+00   8.3739999999999995E-03   7.9520000000000007E-03  -2.3210000000000001E-03
atom   5.2618499999999946E+00   3.4938209999999996E+00   2.4227249999999989E+00 Mg   0.0000000000000000E+00   0.0000000000000000E+00   8.7589999999999994E-03  -9.1299999999999997E-04  -5.7330000000000002E-03
atom   9.1373759999999962E+00   1.8870599999999997E+00   7.0160960000000010E+00 Mg   0.0000000000000000E+00   0.0000000000000000E+00  -1.3795000000000000E-02  -1.0059999999999999E-03   1.3129999999999999E-03
atom  -2.2808730000000002E+00   9.2817539999999994E+00   2.4998219999999995E+00 Mg   0.0000000000000000E+00   0.0000000000000000E+00  -8.6029999999999995E-03  -3.4359999999999998E-03  -9.2829999999999996E-03
atom  -8.1491500000000028E-01   7.4807559999999995E+00   7.5410959999999987E+00 Mg   0.0000000000000000E+00   0.0000000000000000E+00   1.1174999999999999E-02  -2.8360000000000000E-03  -5.1229999999999999E-03
atom   3.4766919999999990E+00   8.2346160000000008E+00   2.2346439999999981E+00 Mg   0.0000000000000000E+00   0.0000000000000000E+00  -9.7269999999999995E-03   5.3700000000000004E-04  -5.8380000000000003E-03
atom   6.0439869999999987E+00   7.3092299999999994E+00   7.0561389999999964E+00 Mg   0.0000000000000000E+00   0.0000000000000000E+00   2.0509999999999999E-03  -8.0579999999999992E-03   4.8560000000000001E-03
atom  -4.1076940000000022E+00   8.9238809999999997E+00   2.1416729999999990E+00 Mg   0.0000000000000000E+00   0.0000000000000000E+00   1.5579000000000001E-02  -1.9789999999999999E-03  -2.1919999999999999E-03
atom  -5.3057700000000307E-01   7.1152089999999992E+00   6.9386299999999990E+00 Mg   0.0000000000000000E+00   0.0000000000000000E+00  -8.8719999999999997E-03  -3.1790000000000000E-03   6.5139999999999998E-03
atom   2.6858149999999976E+00   8.7988280000000003E+00   2.7670709999999978E+00 Mg   0.0000000000000000E+00   0.0000000000000000E+00  -3.3400000000000001E-03   5.9940000000000002E-03  -1.5216000000000000E-02
atom   5.2680109999999942E+00   7.0440990000000001E+00   7.3744389999999962E+00 Mg   0.0000000000000000E+00   0.0000000000000000E+00   3.3180000000000002E-03  -3.0599999999999998E-03   7.6969999999999998E-03
atom   5.5756000000001325E-02   2.9665829999999986E+00   1.8528299999999986E+00 Mg   0.0000000000000000E+00   0.0000000000000000E+00  -9.0000000000000002E-06   1.3920000000000000E-03   5.2280000000000000E-03
atom   3.8231490000000008E+00   1.8141569999999982E+00   6.4408909999999997E+00 Mg   0.0000000000000000E+00   0.0000000000000000E+00  -9.1400000000000006E-03  -2.6879999999999999E-03  -8.2950000000000003E-03
atom   6.8249259999999996E+00   3.4703079999999993E+00   1.4514359999999980E+00 Mg   0.0000000000000000E+00   0.0000000000000000E+00   5.2030000000000002E-03  -1.5126000000000001E-02   6.9350000000000002E-03
atom   9.6284269999999985E+00   6.4716599999999802E-01   6.7646799999999976E+00 Mg   0.0000000000000000E+00   0.0000000000000000E+00  -4.0289999999999996E-03   5.0439999999999999E-03  -2.5300000000000001E-03
atom  -2.0070800000000191E-01   2.4226469999999987E+00   1.5203259999999987E+00 Mg   0.0000000000000000E+00   0.0000000000000000E+00  -7.8440000000000003E-03   4.0480000000000004E-03   1.0169999999999999E-03
atom   2.5327759999999966E+00   8.6316599999999721E-01   6.9578769999999999E+00 Mg   0.0000000000000000E+00   0.0000000000000000E+00   7.3559999999999997E-03   2.4520000000000002E-03  -6.3850000000000001E-03
atom   5.3875419999999972E+00   3.5278900000000002E+00   1.7898809999999976E+00 Mg   0.0000000000000000E+00   0.0000000000000000E+00   8.0900000000000000E-03  -6.6730000000000001E-03   6.3200000000000001E-03
atom   8.8077059999999978E+00   1.2225979999999987E+00   7.1676089999999988E+00 Mg   0.0000000000000000E+00   0.0000000000000000E+00  -1.7550000000000000E-03  -2.5450000000000000E-03  -1.3096999999999999E-02
atom  -2.2892409999999992E+00   8.4784689999999987E+00   2.6040709999999998E+00 Mg   0.0000000000000000E+00   0.0000000000000000E+00  -2.7720000000000002E-03   2.4800000000000001E-04  -1.8134999999999998E-02
atom   4.7744800000000104E-01   6.7373069999999986E+00   6.9575649999999989E+00 Mg   0.0000000000000000E+00   0.0000000000000000E+00   3.9810000000000002E-03  -1.4499999999999999E-03  -6.9600000000000000E-04
atom   3.7365140000000006E+00   7.8788279999999959E+00   1.5781939999999990E+00 Mg   0.0000000000000000E+00   0.0000000000000000E+00  -9.0819999999999998E-03   9.6270000000000001E-03   6.3330000000000001E-03
atom   6.3962800000000000E+00   6.9843940000000000E+00   6.7604689999999987E+00 Mg   0.0000000000000000E+00   0.0000000000000000E+00   1.8270000000000001E-03  -7.6649999999999999E-03  -4.3030000000000004E-03
atom  -3.5223669999999996E+00   8.2314769999999999E+00   1.4744189999999988E+00 Mg   0.0000000000000000E+00   0.0000000000000000E+00   7.0640000000000000E-03   5.1019999999999998E-03   5.0159999999999996E-03
atom  -8.3821700000000043E-01   5.9378209999999978E+00   6.1767239999999992E+00 Mg   0.0000000000000000E+00   0.0000000000000000E+00   3.4160000000000002E-03   3.8330000000000000E-03   4.5040000000000002E-03
atom   3.0806589999999985E+00   8.5261619999999976E+00   2.0960319999999988E+00 Mg   0.0000000000000000E+00   0.0000000000000000E+00  -9.1420000000000008E-03   1.1160000000000000E-03  -6.2249999999999996E-03
atom   6.1079759999999972E+00   6.9092899999999977E+00   6.9820439999999975E+00 Mg   0.0000000000000000E+00   0.0000000000000000E+00  -5.6309999999999997E-03  -7.0819999999999998E-03   2.7390000000000001E-03
energy  -5.6172317999999997E+01
charge   0.0000000000000000E+00
end
begin
comment  i =     1390, time =      695.000, E =       -55.8538607430
lattice   1.3635517000000000E+01   0.0000000000000000E+00   0.0000000000000000E+00
lattice  -6.8177589999999997E+00   1.1808704000000001E+01   0.0000000000000000E+00
lattice   0.0000000000000000E+00   0.0000000000000000E+00   1.0949748000000000E+01
atom  -1.9834739999999997E+00   5.4802469999999994E+00   3.7254580000000002E+00 Mg   0.0000000000000000E+00   0.0000000000000000E+00  -1.2770999999999999E-02  -3.3379999999999998E-03  -7.2099999999999996E-04
atom   8.7265500000000018E-01   1.0726899999999997E+00   9.7417840000000009E+00 Mg   0.0000000000000000E+00   0.0000000000000000E+00  -9.1280000000000007E-03   4.5800000000000002E-04  -9.0279999999999996E-03
atom   4.4008580000000013E+00   2.8905799999999999E+00   4.9652509999999994E+00 Mg   0.0000000000000000E+00   0.0000000000000000E+00   6.7500000000000004E-04  -2.5070000000000001E-03  -3.9979999999999998E-03
atom   9.0939700000000023E+00   4.4415159999999991E+00   8.1786270000000005E+00 Mg   0.0000000000000000E+00   0.0000000000000000E+00   1.1030000000000000E-03   1.1630000000000000E-03  -4.1729999999999996E-03
atom  -1.2994160000000021E+00   2.8825829999999995E+00   3.7560729999999998E+00 Mg   0.0000000000000000E+00   0.0000000000000000E+00  -2.1570000000000001E-03   1.1846000000000001E-02   8.2869999999999992E-03
atom   1.8576630000000027E+00   2.8596609999999996E+00   9.9048020000000001E+00 Mg   0.0000000000000000E+00   0.0000000000000000E+00  -9.0150000000000004E-03   1.3025999999999999E-02  -1.0940000000000000E-02
atom   4.0951450000000005E+00   5.2317199999999993E+00   1.0970249999999999E+00 Mg   0.0000000000000000E+00   0.0000000000000000E+00  -1.3642000000000000E-02   1.6780000000000000E-02   6.2820000000000003E-03
atom   4.2742739999999992E+00   1.7006479999999999E+00   5.3334169999999999E+00 Mg   0.0000000000000000E+00   0.0000000000000000E+00   2.6689999999999999E-03   8.3119999999999999E-03  -7.7720000000000003E-03
atom  -2.1437629999999990E+00   1.1360110000000001E+01   2.7378229999999997E+00 Mg   0.0000000000000000E+00   0.0000000000000000E+00   1.3653000000000000E-02  -1.8804000000000001E-02  -5.4050000000000001E-03
atom   2.0233070000000009E+00   7.5378649999999991E+00   7.0860690000000002E+00 Mg   0.0000000000000000E+00   0.0000000000000000E+00   8.7290000000000006E-03  -1.8209999999999999E-03   6.2540000000000000E-03
atom   5.1575170000000012E+00   1.0830865999999999E+01   2.2753309999999995E+00 Mg   0.0000000000000000E+00   0.0000000000000000E+00   2.8709999999999999E-03  -3.5530000000000002E-03   5.4500000000000002E-04
atom   6.9639740000000003E+00   1.0012331999999999E+01   9.2787279999999974E+00 Mg   0.0000000000000000E+00   0.0000000000000000E+00  -1.9262999999999999E-02   4.9659999999999999E-03  -1.2024000000000000E-02
atom  -1.4707520000000003E+00   9.3488939999999996E+00   2.3477969999999999E+00 Mg   0.0000000000000000E+00   0.0000000000000000E+00   1.0914999999999999E-02   1.1773000000000000E-02   1.2076000000000000E-02
atom  -1.3671559999999972E+00   1.0715445999999998E+01   9.2613979999999980E+00 Mg   0.0000000000000000E+00   0.0000000000000000E+00   1.7285999999999999E-02   8.1390000000000004E-03  -2.2230000000000001E-03
atom   1.1555664000000002E+01   2.6112399999999797E-01   2.1503250000000000E+00 Mg   0.0000000000000000E+00   0.0000000000000000E+00  -1.1221999999999999E-02  -1.2995000000000000E-02  -3.2469999999999999E-03
atom   3.0022949999999988E+00   8.0318419999999993E+00   6.3961870000000003E+00 Mg   0.0000000000000000E+00   0.0000000000000000E+00   5.1229999999999999E-03  -2.3000000000000000E-03   2.0260000000000000E-03
atom   4.2586310000000012E+00   4.4659869999999975E+00   4.9685689999999996E+00 Mg   0.0000000000000000E+00   0.0000000000000000E+00  -6.3249999999999999E-03   7.3780000000000000E-03   7.5820000000000002E-03
atom  -2.1128549999999993E+00   1.0740848000000000E+01   8.2439210000000003E+00 Mg   0.0000000000000000E+00   0.0000000000000000E+00  -1.4697000000000000E-02   1.0009000000000001E-02   5.3629999999999997E-03
atom   8.7574280000000009E+00   3.1630909999999992E+00   1.1566359999999998E+00 Mg   0.0000000000000000E+00   0.0000000000000000E+00   1.1180000000000001E-03   1.5147000000000001E-02  -8.1209999999999997E-03
atom   1.0030307000000001E+01   2.3435869999999985E+00   6.8085469999999990E+00 Mg   0.0000000000000000E+00   0.0000000000000000E+00   6.0899999999999995E-04  -2.4022000000000002E-02   3.9100000000000003E-03
atom  -1.4261699999999750E-01   8.0574999999999957E+00   2.1627360000000002E+00 Mg   0.0000000000000000E+00   0.0000000000000000E+00  -1.6530000000000000E-02  -6.1279999999999998E-03  -2.0720000000000001E-03
atom   2.4727570000000010E+00   4.3012929999999985E+00   4.4089119999999999E+00 Mg   0.0000000000000000E+00   0.0000000000000000E+00   6.9230000000000003E-03  -2.4549000000000001E-02   9.7230000000000007E-03
atom   9.0945920000000005E+00   7.4133469999999981E+00   4.4802709999999992E+00 Mg   0.0000000000000000E+00   0.0000000000000000E+00   9.5399999999999999E-03  -3.5270000000000002E-03   1.0841999999999999E-02
atom   1.1151584999999997E+01   2.9374119999999992E+00   7.4040109999999988E+00 Mg   0.0000000000000000E+00   0.0000000000000000E+00   3.2360000000000002E-03  -5.5230000000000001E-03   1.0370000000000001E-02
atom   6.1505510000000037E+00   1.0024320999999997E+01   3.3739469999999998E+00 Mg   0.0000000000000000E+00   0.0000000000000000E+00   1.1500000000000000E-04   1.1960999999999999E-02   3.2299999999999998E-03
atom   1.3141370000000028E+00   9.4541389999999961E+00   8.2271549999999998E+00 Mg   0.0000000000000000E+00   0.0000000000000000E+00  -2.7190000000000001E-03  -7.9270000000000000E-03  -1.6548000000000000E-02
atom   3.1456160000000022E+00   9.1437819999999981E+00   1.3298969999999999E+00 Mg   0.0000000000000000E+00   0.0000000000000000E+00  -7.0439999999999999E-03   1.1080000000000000E-03   4.4429999999999999E-03
atom   9.1375180000000018E+00   7.1721079999999979E+00   6.5091950000000001E+00 Mg   0.0000000000000000E+00   0.0000000000000000E+00  -8.9099999999999995E-03   2.7744999999999999E-02  -6.3470000000000002E-03
atom  -4.9626869999999972E+00   1.0412728999999999E+01   1.2084600000000000E-01 Mg   0.0000000000000000E+00   0.0000000000000000E+00   1.4423999999999999E-02  -1.1624000000000001E-02  -6.9639999999999997E-03
atom   1.1349810000000031E+00   8.3523349999999947E+00   8.0456430000000001E+00 Mg   0.0000000000000000E+00   0.0000000000000000E+00  -4.9600000000000002E-04   5.2560000000000003E-03   1.2834000000000000E-02
atom   4.2601730000000018E+00   5.3840629999999967E+00   1.0155237000000000E+01 Mg   0.0000000000000000E+00   0.0000000000000000E+00   8.0219999999999996E-03  -4.9709999999999997E-03   3.7151000000000003E-02
atom   5.6185229999999997E+00   5.3337719999999971E+00   9.5303289999999983E+00 Mg   0.0000000000000000E+00   0.0000000000000000E+00  -2.2380000000000000E-03  -5.0910000000000000E-03  -5.8100000000000003E-04
atom   5.3233600000000003E-01   8.5777399999999993E-01   4.7459739999999986E+00 Mg   0.0000000000000000E+00   0.0000000000000000E+00   2.8800000000000001E-04   4.2160000000000001E-03   5.5090000000000000E-03
atom  -3.2762480000000007E+00   1.1718242000000002E+01   9.3669739999999972E+00 Mg   0.0000000000000000E+00   0.0000000000000000E+00  -4.2150000000000000E-03   1.0174000000000001E-02   2.9670000000000000E-03
atom   5.1412300000000002E+00   2.5153409999999998E+00   2.1377149999999991E+00 Mg   0.0000000000000000E+00   0.0000000000000000E+00   7.1750000000000000E-03   1.1127000000000000E-02  -3.4180000000000000E-03
atom   4.3797099999999978E-01   1.0234573000000001E+01   5.5096300000000005E+00 Mg   0.0000000000000000E+00   0.0000000000000000E+00   1.1310000000000001E-03  -1.0434000000000001E-02   8.6000000000000000E-03
atom   1.0374922000000000E+01   2.2284799999999996E-01   1.4970479999999997E+00 Mg   0.0000000000000000E+00   0.0000000000000000E+00   1.5598000000000001E-02   7.5360000000000002E-03   2.7550000000000001E-03
atom   2.3745760000000007E+00   3.9435329999999991E+00   4.0257009999999998E+00 Mg   0.0000000000000000E+00   0.0000000000000000E+00   1.0129000000000001E-02  -3.4740000000000001E-03   7.6480000000000003E-03
atom   7.7567499999999994E+00   4.7735700000000003E+00   9.1519879999999976E+00 Mg   0.0000000000000000E+00   0.0000000000000000E+00   1.4999999999999999E-04  -1.5799999999999999E-04  -4.8999999999999998E-04
atom   6.8764510000000012E+00   1.5612319999999997E+00   8.5788849999999996E+00 Mg   0.0000000000000000E+00   0.0000000000000000E+00   1.4444000000000000E-02  -4.7679999999999997E-03  -1.4120000000000001E-02
atom  -8.9483699999999944E-01   7.8387599999999988E+00   2.4245599999999978E+00 Mg   0.0000000000000000E+00   0.0000000000000000E+00  -3.5070000000000001E-03  -1.6268999999999999E-02  -5.0509999999999999E-03
atom   1.5011670000000001E+00   6.0311209999999997E+00   9.2006660000000000E+00 Mg   0.0000000000000000E+00   0.0000000000000000E+00   3.4259999999999998E-03   9.3800000000000003E-04  -3.0890000000000002E-03
atom   4.5980630000000007E+00   8.4469080000000005E+00   4.0885589999999992E+00 Mg   0.0000000000000000E+00   0.0000000000000000E+00  -3.0390000000000000E-03  -2.7539999999999999E-03   7.3249999999999999E-03
atom   8.1422500000000007E+00   6.6435279999999990E+00   9.9715609999999995E+00 Mg   0.0000000000000000E+00   0.0000000000000000E+00  -1.0120000000000001E-02  -1.7068000000000000E-02  -8.9149999999999993E-03
atom  -4.1093609999999998E+00   7.3172499999999987E+00   2.0495539999999992E+00 Mg   0.0000000000000000E+00   0.0000000000000000E+00   1.7292999999999999E-02  -1.0619999999999999E-02   2.1815999999999999E-02
atom   1.1480460000000003E+01   2.9327889999999996E+00   6.7956120000000020E+00 Mg   0.0000000000000000E+00   0.0000000000000000E+00  -1.3924000000000001E-02  -1.2190000000000000E-03   1.9710000000000001E-03
atom   5.6408680000000020E+00   9.5838789999999996E+00   1.3243769999999986E+00 Mg   0.0000000000000000E+00   0.0000000000000000E+00  -1.0779000000000000E-02  -8.1049999999999994E-03  -9.0060000000000001E-03
atom   7.2080300000000026E+00   7.4550759999999991E+00   6.7492569999999974E+00 Mg   0.0000000000000000E+00   0.0000000000000000E+00  -5.7100000000000000E-04  -2.3140000000000001E-03   1.8660000000000000E-03
atom   1.0738940000000006E+00   1.9699659999999981E+00   4.5841259999999995E+00 Mg   0.0000000000000000E+00   0.0000000000000000E+00  -5.1679999999999999E-03   1.0062000000000000E-02  -6.9220000000000002E-03
atom   3.2624710000000010E+00   3.7423589999999973E+00   9.0420369999999988E+00 Mg   0.0000000000000000E+00   0.0000000000000000E+00   8.4220000000000007E-03   4.9690000000000003E-03   8.1740000000000007E-03
atom   8.4507480000000008E+00   7.7823899999999846E-01   1.6380359999999978E+00 Mg   0.0000000000000000E+00   0.0000000000000000E+00  -4.8650000000000004E-03   8.3899999999999999E-03  -6.2210000000000000E-03
atom  -9.4277299999999964E-01   1.1529608000000000E+01   6.5595049999999997E+00 Mg   0.0000000000000000E+00   0.0000000000000000E+00   1.1356000000000000E-02  -1.5240000000000000E-03   9.3939999999999996E-03
atom  -3.9620600000000050E-01   3.2372389999999971E+00   9.0600499999999884E-01 Mg   0.0000000000000000E+00   0.0000000000000000E+00   1.4212000000000001E-02   1.3206000000000001E-02   8.8599999999999996E-04
atom   1.7294069999999990E+00   5.6467399999999923E-01   6.2845679999999993E+00 Mg   0.0000000000000000E+00   0.0000000000000000E+00   3.4589999999999998E-03  -2.1779999999999998E-03  -2.6699999999999998E-04
atom   7.0880039999999989E+00   2.2144499999999976E+00   3.6941839999999986E+00 Mg   0.0000000000000000E+00   0.0000000000000000E+00   1.2766000000000000E-02  -2.1495000000000000E-02  -3.0910000000000000E-03
atom   5.0818199999999991E-01   8.1415269999999982E+00   6.9763199999999985E+00 Mg   0.0000000000000000E+00   0.0000000000000000E+00  -1.3999999999999999E-04   1.1794000000000001E-02  -5.1690000000000000E-03
atom  -1.8724869999999980E+00   6.7778599999999960E+00   1.1832089999999997E+00 Mg   0.0000000000000000E+00   0.0000000000000000E+00   4.3759999999999997E-03  -2.1240000000000000E-03   6.2810000000000001E-03
atom  -1.8195230000000007E+00   4.9430709999999971E+00   9.3910949999999982E+00 Mg   0.0000000000000000E+00   0.0000000000000000E+00  -1.2888999999999999E-02   2.1760000000000000E-03  -1.2522999999999999E-02
atom   4.7179710000000004E+00   5.0502960000000003E+00   2.0197500000000093E-01 Mg   0.0000000000000000E+00   0.0000000000000000E+00  -7.1590000000000004E-03  -5.2969999999999996E-03  -7.7619999999999998E-03
atom   6.7206940000000008E+00   6.4963509999999971E+00   5.4529390000000006E+00 Mg   0.0000000000000000E+00   0.0000000000000000E+00   1.0449999999999999E-03  -8.7000000000000001E-05   9.4100000000000000E-04
atom  -3.6051799999999994E+00   8.4982809999999986E+00   9.6708100000000008E-01 Mg   0.0000000000000000E+00   0.0000000000000000E+00   6.4159999999999998E-03  -1.0501000000000000E-02   1.1554999999999999E-02
atom  -1.0221950000000011E+00   5.9611189999999974E+00   6.6830929999999986E+00 Mg   0.0000000000000000E+00   0.0000000000000000E+00  -8.7440000000000000E-03   3.1040000000000000E-03  -6.9670000000000001E-03
atom   1.4229980000000020E+00   1.1791866999999996E+01   2.8838439999999990E+00 Mg   0.0000000000000000E+00   0.0000000000000000E+00  -5.6880000000000003E-03  -4.4850000000000003E-03  -5.2560000000000003E-03
atom   4.3035470000000000E+00   6.3114979999999958E+00   4.4245029999999987E+00 Mg   0.0000000000000000E+00   0.0000000000000000E+00  -1.1731999999999999E-02   2.0795999999999999E-02  -4.0174000000000001E-02
energy  -5.5853861000000002E+01
charge   0.0000000000000000E+00
end
begin
comment  i =    17580, time =     8790.000, E =       -56.3669779359
lattice   1.2819907000000001E+01   0.0000000000000000E+00   0.0000000000000000E+00
lattice  -6.4099529999999998E+00   1.1102365000000001E+01   0.0000000000000000E+00
lattice   0.0000000000000000E+00   0.0000000000000000E+00   1.0294788000000000E+01
atom   8.0240000000000061E-02   3.4033899999999999E+00   2.2884799999999998E+00 Mg   0.0000000000000000E+00   0.0000000000000000E+00  -2.5000000000000001E-04   2.7500000000000002E-04   3.2220000000000000E-03
atom   3.1968139999999998E+00   1.7828010000000003E+00   7.2059749999999996E+00 Mg   0.0000000000000000E+00   0.0000000000000000E+00  -2.7309999999999999E-03  -4.3800000000000002E-04   1.6329999999999999E-03
atom   5.9947750000000006E+00   3.3249059999999999E+00   2.5535790000000000E+00 Mg   0.0000000000000000E+00   0.0000000000000000E+00   1.2470000000000001E-03   4.8679999999999999E-03  -3.0200000000000001E-03
atom   9.2397629999999982E+00   2.0275690000000002E+00   7.4985660000000003E+00 Mg   0.0000000000000000E+00   0.0000000000000000E+00  -1.8610000000000000E-03  -5.3839999999999999E-03  -4.3959999999999997E-03
atom  -7.1318000000000226E-01   3.4771350000000001E+00   2.3642710000000000E+00 Mg   0.0000000000000000E+00   0.0000000000000000E+00   6.3699999999999998E-04   1.8289999999999999E-03   1.5550000000000000E-03
atom   2.3415679999999974E+00   1.8633869999999999E+00   7.2903399999999996E+00 Mg   0.0000000000000000E+00   0.0000000000000000E+00   9.0200000000000002E-04  -1.6370000000000000E-03   1.0050000000000000E-03
atom   5.5319979999999962E+00   3.4395210000000005E+00   2.5665730000000000E+00 Mg   0.0000000000000000E+00   0.0000000000000000E+00  -1.2780000000000001E-03   2.9799999999999998E-04  -3.6170000000000000E-03
atom   8.4317589999999996E+00   1.8100790000000000E+00   7.3231999999999999E+00 Mg   0.0000000000000000E+00   0.0000000000000000E+00  -1.1200000000000000E-04  -2.0910000000000000E-03   2.0799999999999998E-03
atom  -2.9893710000000002E+00   8.7354930000000017E+00   2.4174289999999998E+00 Mg   0.0000000000000000E+00   0.0000000000000000E+00  -6.6600000000000003E-04  -9.7799999999999992E-04  -2.1699999999999999E-04
atom  -6.0257999999999694E-02   6.9192299999999998E+00   7.2353579999999997E+00 Mg   0.0000000000000000E+00   0.0000000000000000E+00   8.7799999999999998E-04  -1.1709999999999999E-03   2.0820000000000001E-03