#     Step Nr.          Time[fs]        Kin.[a.u.]          Temp[K]            Pot.[a.u.]        Cons Qty[a.u.]        UsedTime[s]
      2001         1000.500000         0.149330731       498.993215859       -56.172669652       -56.201110174        31.642094708
      2002         1001.000000         0.151882600       507.520363926       -56.172533709       -56.201102388        15.851335598
