begin
comment  i =      970, time =      485.000, E =       -56.1741116575
lattice   1.3170612999999999E+01   0.0000000000000000E+00   0.0000000000000000E+00
lattice  -6.5853060000000001E+00   1.1406084999999999E+01   0.0000000000000000E+00
lattice   0.0000000000000000E+00   0.0000000000000000E+00   1.0576415000000001E+01
atom  -1.4093899999999959E-01   4.0342269999999996E+00   2.9490460000000005E+00 Mg   0.0000000000000000E+00   0.0000000000000000E+00   4.1939999999999998E-03  -4.5500000000000000E-04  -2.4180000000000000E-03
atom   2.9813719999999999E+00   2.2276609999999999E+00   7.6029530000000012E+00 Mg   0.0000000000000000E+00   0.0000000000000000E+00  -2.5739999999999999E-03  -2.0370000000000002E-03   3.3240000000000001E-03
atom   5.6755770000000005E+00   3.7568630000000001E+00   3.0470579999999998E+00 Mg   0.0000000000000000E+00   0.0000000000000000E+00   1.2475999999999999E-02  -5.7959999999999999E-03  -1.3810000000000001E-03
atom   9.0327510000000011E+00   2.4622530000000000E+00   8.4139769999999992E+00 Mg   0.0000000000000000E+00   0.0000000000000000E+00   6.4970000000000002E-03  -2.0567999999999999E-02  -1.4416000000000000E-02
atom  -1.0694520000000014E+00   3.0607649999999995E+00   2.5806369999999998E+00 Mg   0.0000000000000000E+00   0.0000000000000000E+00   4.7590000000000002E-03   4.7320000000000001E-03   4.9990000000000000E-03
atom   2.9689779999999977E+00   2.1111420000000001E+00   6.8744350000000001E+00 Mg   0.0000000000000000E+00   0.0000000000000000E+00  -5.0000000000000001E-03  -2.2970000000000000E-03   3.9969999999999997E-03
atom   6.3157869999999994E+00   3.1906270000000001E+00   2.4404180000000002E+00 Mg   0.0000000000000000E+00   0.0000000000000000E+00  -1.2708000000000001E-02   4.2259999999999997E-03  -3.8549999999999999E-03
atom   8.9279919999999997E+00   1.1283179999999999E+00   7.6434360000000003E+00 Mg   0.0000000000000000E+00   0.0000000000000000E+00  -1.8489999999999999E-03   3.7700000000000000E-04   2.9659999999999999E-03
atom  -3.6419979999999996E+00   9.7322469999999992E+00   2.9729209999999999E+00 Mg   0.0000000000000000E+00   0.0000000000000000E+00   1.6312000000000000E-02  -9.2860000000000009E-03  -4.4169999999999999E-03
atom  -2.1793599999999924E-01   7.2675569999999992E+00   7.7651150000000007E+00 Mg   0.0000000000000000E+00   0.0000000000000000E+00   5.8690000000000001E-03   2.9619999999999998E-03   3.9659999999999999E-03
atom   3.2007040000000013E+00   8.6952390000000008E+00   3.1061450000000002E+00 Mg   0.0000000000000000E+00   0.0000000000000000E+00  -5.6109999999999997E-03   9.5359999999999993E-03   1.0900000000000000E-03
atom   6.7845540000000009E+00   7.1049759999999997E+00   8.0863709999999998E+00 Mg   0.0000000000000000E+00   0.0000000000000000E+00  -1.9123999999999999E-02   1.5709999999999998E-02  -7.7999999999999996E-03
atom  -3.1505459999999998E+00   9.0274509999999992E+00   1.8050219999999999E+00 Mg   0.0000000000000000E+00   0.0000000000000000E+00  -1.4270000000000001E-03  -3.3700000000000001E-04   6.4450000000000002E-03
atom  -1.0704069999999986E+00   7.1349179999999990E+00   7.8870779999999998E+00 Mg   0.0000000000000000E+00   0.0000000000000000E+00   1.1924000000000001E-02   3.9069999999999999E-03  -7.2170000000000003E-03
atom   2.6876830000000020E+00   8.3247160000000004E+00   2.6085419999999999E+00 Mg   0.0000000000000000E+00   0.0000000000000000E+00  -7.0260000000000001E-03  -3.9909999999999998E-03  -4.6369999999999996E-03
atom   5.9142049999999982E+00   7.4084250000000003E+00   7.2762659999999997E+00 Mg   0.0000000000000000E+00   0.0000000000000000E+00  -6.3550000000000004E-03  -5.8230000000000001E-03   1.4614000000000000E-02
atom  -7.1519999999998723E-02   2.7253590000000014E+00   2.3438119999999998E+00 Mg   0.0000000000000000E+00   0.0000000000000000E+00  -2.5320000000000000E-03   1.5056000000000000E-02   3.8460000000000000E-03
atom   3.8897570000000012E+00   1.6535649999999993E+00   7.7189509999999997E+00 Mg   0.0000000000000000E+00   0.0000000000000000E+00  -7.4640000000000001E-03   1.7409999999999999E-03   3.4220000000000001E-03
atom   6.3374940000000013E+00   3.2741450000000012E+00   2.8702510000000001E+00 Mg   0.0000000000000000E+00   0.0000000000000000E+00   1.6140000000000000E-03   7.1000000000000005E-05  -6.3650000000000000E-03
atom   9.7272149999999993E+00   1.4367300000000012E+00   7.3421740000000009E+00 Mg   0.0000000000000000E+00   0.0000000000000000E+00  -7.8899999999999999E-04  -2.5000000000000001E-03   5.9400000000000000E-03
atom  -5.5078499999999952E-01   2.4543600000000017E+00   1.8147290000000000E+00 Mg   0.0000000000000000E+00   0.0000000000000000E+00  -7.1199999999999996E-04   3.0680000000000000E-03  -5.6979999999999999E-03
atom   2.4502320000000011E+00   1.8249760000000010E+00   6.6562130000000002E+00 Mg   0.0000000000000000E+00   0.0000000000000000E+00  -1.3230000000000000E-03  -1.5716000000000001E-02   1.0342000000000000E-02
atom   5.5796670000000042E+00   3.2288880000000004E+00   2.5972890000000000E+00 Mg   0.0000000000000000E+00   0.0000000000000000E+00   7.0670000000000004E-03  -3.2899999999999997E-04  -6.4289999999999998E-03
atom   8.5213430000000017E+00   4.2017499999999963E-01   6.8827330000000000E+00 Mg   0.0000000000000000E+00   0.0000000000000000E+00   2.7740000000000000E-03   6.8100000000000001E-03   6.3249999999999999E-03
atom  -3.3632189999999995E+00   8.7278410000000015E+00   2.1826310000000002E+00 Mg   0.0000000000000000E+00   0.0000000000000000E+00   6.1100000000000000E-03  -2.9659999999999999E-03   2.3231000000000002E-02
atom   1.5082900000000085E-01   7.2768279999999992E+00   7.2649749999999997E+00 Mg   0.0000000000000000E+00   0.0000000000000000E+00   3.5650000000000000E-03  -3.8720000000000000E-03  -2.4910000000000002E-03
atom   2.9486130000000004E+00   8.5212990000000008E+00   2.4503910000000002E+00 Mg   0.0000000000000000E+00   0.0000000000000000E+00   1.3870000000000000E-03  -1.3010000000000001E-03   2.4499999999999999E-04
atom   6.5965370000000005E+00   7.4498920000000002E+00   7.5093230000000002E+00 Mg   0.0000000000000000E+00   0.0000000000000000E+00  -5.1799999999999997E-03  -2.4200000000000000E-04  -3.6730000000000000E-03
atom  -3.4574459999999996E+00   7.9797759999999993E+00   1.9284580000000002E+00 Mg   0.0000000000000000E+00   0.0000000000000000E+00  -1.7760000000000000E-03   3.1400000000000000E-03  -2.9160000000000002E-03
atom  -5.5471599999999865E-01   6.4438520000000015E+00   6.5743650000000002E+00 Mg   0.0000000000000000E+00   0.0000000000000000E+00   7.5600000000000005E-04   6.8240000000000002E-03   6.1170000000000000E-03
atom   2.5251440000000023E+00   8.1343599999999991E+00   2.1214860000000000E+00 Mg   0.0000000000000000E+00   0.0000000000000000E+00  -1.4419999999999999E-03  -2.5810000000000000E-03   1.4909999999999999E-03
atom   6.0734800000000009E+00   5.8552890000000017E+00   7.9731980000000000E+00 Mg   0.0000000000000000E+00   0.0000000000000000E+00  -2.3820000000000000E-03   4.9919999999999999E-03  -2.7599999999999999E-04
atom  -5.7676999999999971E-02   4.3227589999999996E+00   2.3213479999999982E+00 Mg   0.0000000000000000E+00   0.0000000000000000E+00  -7.5500000000000003E-04  -7.8609999999999999E-03  -7.2800000000000002E-04
atom   3.2101049999999995E+00   1.6362850000000000E+00   7.2611840000000010E+00 Mg   0.0000000000000000E+00   0.0000000000000000E+00   2.0390000000000000E-03   1.0328000000000000E-02  -1.3526000000000000E-02
atom   5.7938559999999999E+00   3.3305359999999995E+00   2.0892500000000007E+00 Mg   0.0000000000000000E+00   0.0000000000000000E+00  -4.8999999999999998E-03   3.4600000000000001E-04   1.2246999999999999E-02
atom   8.9658990000000021E+00   2.5519790000000002E+00   7.1897290000000007E+00 Mg   0.0000000000000000E+00   0.0000000000000000E+00   4.5979999999999997E-03  -5.5750000000000001E-03  -4.4240000000000000E-03
atom  -3.6426599999999781E-01   3.3999259999999998E+00   1.7234389999999999E+00 Mg   0.0000000000000000E+00   0.0000000000000000E+00   3.5119999999999999E-03  -7.9790000000000000E-03   7.1640000000000002E-03
atom   2.7551130000000010E+00   1.4970169999999998E+00   6.5611080000000017E+00 Mg   0.0000000000000000E+00   0.0000000000000000E+00   1.0740000000000001E-03  -2.8560000000000000E-03   3.3490000000000000E-03
atom   5.7603370000000025E+00   3.8094899999999998E+00   2.1023550000000002E+00 Mg   0.0000000000000000E+00   0.0000000000000000E+00   4.0369999999999998E-03  -4.7120000000000000E-03  -7.9030000000000003E-03
atom   9.3733930000000001E+00   1.8819469999999998E+00   7.1370650000000015E+00 Mg   0.0000000000000000E+00   0.0000000000000000E+00  -7.8289999999999992E-03  -3.5720000000000001E-03  -3.4880000000000002E-03
atom  -3.0373869999999998E+00   9.7084980000000005E+00   2.0978759999999999E+00 Mg   0.0000000000000000E+00   0.0000000000000000E+00   2.3770000000000002E-03  -9.8400000000000007E-04  -9.1000000000000003E-05
atom  -4.6023199999999947E-01   7.5907060000000000E+00   7.5911370000000007E+00 Mg   0.0000000000000000E+00   0.0000000000000000E+00   9.7470000000000005E-03  -9.8060000000000005E-03  -1.2979999999999999E-03
atom   3.4290510000000003E+00   8.8960349999999995E+00   1.9245969999999997E+00 Mg   0.0000000000000000E+00   0.0000000000000000E+00  -2.4329999999999998E-03   5.5750000000000001E-03  -3.5509999999999999E-03
atom   5.8169160000000000E+00   7.2849199999999987E+00   7.6680059999999983E+00 Mg   0.0000000000000000E+00   0.0000000000000000E+00  -8.4000000000000003E-04   2.4699999999999999E-04  -7.2880000000000002E-03
atom  -3.9389769999999977E+00   7.6757119999999990E+00   2.7330570000000001E+00 Mg   0.0000000000000000E+00   0.0000000000000000E+00   1.6530000000000000E-03   3.4009999999999999E-03   3.3210000000000002E-03
atom   2.5480000000000103E-01   6.5953169999999997E+00   6.9623799999999996E+00 Mg   0.0000000000000000E+00   0.0000000000000000E+00  -8.2760000000000004E-03   1.4310000000000000E-03   1.8010000000000001E-03
atom   2.5095180000000004E+00   8.4043759999999992E+00   2.0155409999999985E+00 Mg   0.0000000000000000E+00   0.0000000000000000E+00   5.0460000000000001E-03   3.6080000000000001E-03  -4.4219999999999997E-03
atom   5.7419809999999991E+00   6.8335009999999992E+00   6.9958469999999977E+00 Mg   0.0000000000000000E+00   0.0000000000000000E+00   2.8609999999999998E-03   2.8310000000000002E-03   2.2940000000000000E-03
atom  -1.3261699999999868E-01   3.2982250000000009E+00   1.1725699999999994E+00 Mg   0.0000000000000000E+00   0.0000000000000000E+00   3.2000000000000003E-04  -4.3940000000000003E-03   5.6940000000000003E-03
atom   3.7130839999999998E+00   9.6616200000000163E-01   7.4257140000000001E+00 Mg   0.0000000000000000E+00   0.0000000000000000E+00  -7.7840000000000001E-03   1.3531000000000000E-02  -6.2789999999999999E-03
atom   6.7563180000000020E+00   3.9877920000000002E+00   1.9810500000000006E+00 Mg   0.0000000000000000E+00   0.0000000000000000E+00   2.5030000000000000E-03  -1.1583000000000000E-02  -6.0369999999999998E-03
atom   9.5472850000000005E+00   6.2626499999999996E-01   6.4317670000000016E+00 Mg   0.0000000000000000E+00   0.0000000000000000E+00  -1.3489999999999999E-03   1.3426000000000000E-02   3.1459999999999999E-03
atom  -1.8733199999999828E-01   3.2645679999999992E+00   1.3362079999999996E+00 Mg   0.0000000000000000E+00   0.0000000000000000E+00  -4.0700000000000003E-04  -6.1260000000000004E-03  -4.5500000000000002E-03
atom   2.8236950000000007E+00   9.9274800000000152E-01   6.1408479999999983E+00 Mg   0.0000000000000000E+00   0.0000000000000000E+00  -6.8259999999999996E-03  -1.8370000000000001E-03   1.1355000000000001E-02
atom   5.5333950000000005E+00   1.1083300000000016E+00   1.5084940000000000E+00 Mg   0.0000000000000000E+00   0.0000000000000000E+00   1.6800000000000001E-03   1.0515000000000000E-02  -1.0323000000000001E-02
atom   8.9077610000000007E+00   1.1906620000000010E+00   6.9734960000000008E+00 Mg   0.0000000000000000E+00   0.0000000000000000E+00   3.8850000000000000E-03  -4.0130000000000001E-03  -5.6660000000000000E-03
atom  -2.6744619999999983E+00   8.3909170000000000E+00   1.7143370000000000E+00 Mg   0.0000000000000000E+00   0.0000000000000000E+00  -7.3340000000000002E-03   2.4740000000000001E-03   7.3689999999999997E-03
atom   3.9793800000000101E-01   6.9374079999999987E+00   6.8418430000000008E+00 Mg   0.0000000000000000E+00   0.0000000000000000E+00  -7.7739999999999997E-03  -1.0486000000000001E-02   1.7000000000000001E-04
atom   3.0946740000000017E+00   8.5588770000000007E+00   2.4680819999999994E+00 Mg   0.0000000000000000E+00   0.0000000000000000E+00   4.8019999999999998E-03   5.7900000000000000E-03  -1.5723000000000001E-02
atom   5.9937570000000004E+00   6.5944669999999999E+00   6.6328700000000005E+00 Mg   0.0000000000000000E+00   0.0000000000000000E+00   1.1381000000000000E-02   1.3500000000000001E-03   1.6056000000000001E-02
atom  -2.9375709999999984E+00   8.6523410000000016E+00   9.9747799999999909E-01 Mg   0.0000000000000000E+00   0.0000000000000000E+00   3.2669999999999999E-03   1.4549999999999999E-03   5.4840000000000002E-03
atom  -4.5441999999999982E-01   6.0390150000000009E+00   6.2731329999999987E+00 Mg   0.0000000000000000E+00   0.0000000000000000E+00  -3.3210000000000002E-03   3.0760000000000002E-03   5.2769999999999996E-03
atom   3.0675840000000023E+00   8.2506330000000023E+00   2.2353070000000002E+00 Mg   0.0000000000000000E+00   0.0000000000000000E+00   2.7020000000000000E-03   1.5020000000000001E-03   6.2399999999999999E-04
atom   6.2893330000000010E+00   6.3932240000000018E+00   7.3262560000000017E+00 Mg   0.0000000000000000E+00   0.0000000000000000E+00  -7.6860000000000001E-03  -2.1589999999999999E-03  -1.8422000000000001E-02
energy  -5.6174112000000001E+01
charge   0.0000000000000000E+00
end
begin
comment  i =     5260, time =     2630.000, E =       -56.1909023416
lattice   1.3020298000000000E+01   0.0000000000000000E+00   0.0000000000000000E+00
lattice  -6.5101490000000002E+00   1.1275909000000000E+01   0.0000000000000000E+00
lattice   0.0000000000000000E+00   0.0000000000000000E+00   1.0455708000000000E+01
atom   4.9160699999999996E-01   3.6751459999999998E+00   2.6711860000000001E+00 Mg   0.0000000000000000E+00   0.0000000000000000E+00  -3.4429999999999999E-03  -8.7370000000000000E-03   5.7270000000000003E-03
atom   2.9426209999999999E+00   2.0220989999999999E+00   7.9680059999999999E+00 Mg   0.0000000000000000E+00   0.0000000000000000E+00   4.3179999999999998E-03  -1.8469999999999999E-03  -3.3409999999999998E-03
atom   6.5901409999999991E+00   3.1364589999999999E+00   2.5201940000000000E+00 Mg   0.0000000000000000E+00   0.0000000000000000E+00  -1.1481999999999999E-02   7.3800000000000005E-04  -6.4970000000000002E-03
atom   9.2626719999999985E+00   2.0566350000000000E+00   7.2419870000000000E+00 Mg   0.0000000000000000E+00   0.0000000000000000E+00   1.5770000000000001E-03  -4.7850000000000002E-03   8.6580000000000008E-03
atom  -6.6015000000000090E-01   4.3689809999999998E+00   2.2224900000000001E+00 Mg   0.0000000000000000E+00   0.0000000000000000E+00   1.0499999999999999E-03  -8.4379999999999993E-03   1.3060000000000001E-03
atom   2.8725659999999995E+00   2.1647970000000001E+00   7.4497400000000011E+00 Mg   0.0000000000000000E+00   0.0000000000000000E+00  -5.2180000000000004E-03  -6.0089999999999996E-03   7.8500000000000000E-04
atom   5.6471699999999965E+00   3.6980540000000000E+00   2.7524620000000000E+00 Mg   0.0000000000000000E+00   0.0000000000000000E+00  -5.8840000000000003E-03   4.3080000000000002E-03  -3.7929999999999999E-03
atom   8.8512829999999951E+00   1.9908839999999999E+00   7.8285400000000003E+00 Mg   0.0000000000000000E+00   0.0000000000000000E+00  -5.9810000000000002E-03  -2.2799999999999999E-03  -6.0860000000000003E-03
atom  -2.6308049999999992E+00   8.2992050000000006E+00   2.2539959999999999E+00 Mg   0.0000000000000000E+00   0.0000000000000000E+00  -4.1180000000000001E-03   6.3190000000000000E-03  -4.6099999999999998E-04
atom   1.4361500000000035E-01   7.4590519999999998E+00   7.5285849999999996E+00 Mg   0.0000000000000000E+00   0.0000000000000000E+00   3.4849999999999998E-03  -7.5880000000000001E-03  -4.3350000000000003E-03
atom   3.1328260000000006E+00   8.4507169999999991E+00   2.0800529999999999E+00 Mg   0.0000000000000000E+00   0.0000000000000000E+00  -5.0870000000000004E-03   7.7489999999999998E-03   1.0555999999999999E-02
atom   6.1750259999999981E+00   6.6313779999999998E+00   6.7560180000000001E+00 Mg   0.0000000000000000E+00   0.0000000000000000E+00  -6.4660000000000004E-03   5.5690000000000002E-03   1.3250000000000000E-02
atom  -4.5697509999999992E+00   9.0672160000000002E+00   2.0401769999999999E+00 Mg   0.0000000000000000E+00   0.0000000000000000E+00   1.7715000000000002E-02  -7.3650000000000000E-03   1.9090000000000001E-03
atom  -3.9436900000000313E-01   7.1953050000000012E+00   7.2657600000000002E+00 Mg   0.0000000000000000E+00   0.0000000000000000E+00  -3.8869999999999998E-03  -4.0999999999999999E-04  -7.8059999999999996E-03
atom   2.4111149999999961E+00   8.9973440000000000E+00   2.3826760000000000E+00 Mg   0.0000000000000000E+00   0.0000000000000000E+00  -1.5960000000000000E-03   5.0090000000000004E-03   2.8370000000000001E-03
atom   5.8994199999999992E+00   7.0376420000000000E+00   6.9194909999999998E+00 Mg   0.0000000000000000E+00   0.0000000000000000E+00  -3.2550000000000001E-03   5.1060000000000003E-03   1.4345000000000000E-02
atom   8.3313099999999995E-01   2.8111409999999997E+00   2.6436540000000006E+00 Mg   0.0000000000000000E+00   0.0000000000000000E+00   1.9880000000000002E-03   3.1459999999999999E-03  -5.4330000000000003E-03
atom   3.5048290000000004E+00   6.6541600000000112E-01   7.2950580000000000E+00 Mg   0.0000000000000000E+00   0.0000000000000000E+00   8.5400000000000005E-04   1.2446000000000000E-02   7.7830000000000000E-03
atom   7.0110699999999992E+00   3.3947310000000011E+00   3.0533190000000001E+00 Mg   0.0000000000000000E+00   0.0000000000000000E+00  -2.5439999999999998E-03  -2.7179999999999999E-03  -1.1900000000000001E-03
atom   1.0042491000000000E+01   1.5284399999999987E+00   7.2164289999999998E+00 Mg   0.0000000000000000E+00   0.0000000000000000E+00  -4.1650000000000003E-03  -1.0666999999999999E-02   1.1897000000000000E-02
atom   2.9071900000000023E-01   3.0370750000000002E+00   2.1594170000000004E+00 Mg   0.0000000000000000E+00   0.0000000000000000E+00  -1.2748000000000001E-02   6.6559999999999996E-03   2.3259999999999999E-03
atom   2.4816500000000010E+00   1.1165199999999903E-01   7.1409440000000002E+00 Mg   0.0000000000000000E+00   0.0000000000000000E+00   5.1390000000000003E-03   1.5102000000000001E-02   2.7680000000000001E-03
atom   5.7669079999999964E+00   3.3365220000000009E+00   1.9377789999999999E+00 Mg   0.0000000000000000E+00   0.0000000000000000E+00  -1.4050000000000000E-03  -8.2470000000000009E-03   8.5280000000000009E-03
atom   9.1230099999999990E+00   1.4197429999999993E+00   6.9494340000000010E+00 Mg   0.0000000000000000E+00   0.0000000000000000E+00  -3.8349999999999999E-03  -2.5140000000000002E-03   5.9420000000000002E-03
atom  -2.6268559999999987E+00   7.6049999999999986E+00   2.4736810000000000E+00 Mg   0.0000000000000000E+00   0.0000000000000000E+00   2.8830000000000001E-03   1.0363000000000001E-02  -7.8600000000000002E-04
atom   5.5532600000000032E-01   6.8586830000000019E+00   7.1603600000000007E+00 Mg   0.0000000000000000E+00   0.0000000000000000E+00  -1.8970000000000000E-03  -4.1920000000000004E-03   1.3275000000000000E-02
atom   3.8196380000000012E+00   8.3574289999999980E+00   3.1013510000000006E+00 Mg   0.0000000000000000E+00   0.0000000000000000E+00   3.4800000000000000E-03  -3.9189999999999997E-03  -7.3850000000000001E-03
atom   6.8676950000000003E+00   7.0625299999999998E+00   8.0670909999999996E+00 Mg   0.0000000000000000E+00   0.0000000000000000E+00  -4.0689999999999997E-03  -2.8790000000000000E-03  -5.7349999999999996E-03
atom  -3.0842529999999999E+00   8.9214509999999994E+00   2.0673550000000001E+00 Mg   0.0000000000000000E+00   0.0000000000000000E+00  -4.7660000000000003E-03  -6.1960000000000001E-03   5.7570000000000000E-03
atom  -3.6749599999999971E-01   6.3806430000000010E+00   6.8556900000000001E+00 Mg   0.0000000000000000E+00   0.0000000000000000E+00  -3.6730000000000000E-03   5.3959999999999998E-03   9.0910000000000001E-03
atom   2.4461189999999999E+00   8.9159389999999998E+00   2.8743320000000003E+00 Mg   0.0000000000000000E+00   0.0000000000000000E+00   1.3370000000000000E-02  -6.9969999999999997E-03  -8.5400000000000007E-03
atom   5.4095729999999991E+00   6.3084629999999962E+00   7.3519900000000007E+00 Mg   0.0000000000000000E+00   0.0000000000000000E+00   2.9110000000000000E-03   2.3950000000000000E-03  -2.7900000000000001E-04
atom  -6.2536199999999975E-01   3.8242590000000001E+00   2.0244320000000009E+00 Mg   0.0000000000000000E+00   0.0000000000000000E+00   4.6719999999999999E-03  -7.1329999999999996E-03   6.8339999999999998E-03
atom   2.3548849999999999E+00   1.1327179999999999E+00   7.2931030000000021E+00 Mg   0.0000000000000000E+00   0.0000000000000000E+00   3.7550000000000001E-03   5.9800000000000001E-03  -5.4349999999999997E-03
atom   5.5776830000000013E+00   3.3171179999999998E+00   2.5592070000000020E+00 Mg   0.0000000000000000E+00   0.0000000000000000E+00   5.1580000000000003E-03   3.5260000000000001E-03  -3.7039999999999998E-03
atom   9.4286819999999985E+00   1.1677180000000000E+00   7.4165650000000012E+00 Mg   0.0000000000000000E+00   0.0000000000000000E+00  -5.5399999999999998E-03   3.1779999999999998E-03  -8.0970000000000000E-03
atom  -1.1603360000000027E+00   3.5783049999999998E+00   1.3836770000000005E+00 Mg   0.0000000000000000E+00   0.0000000000000000E+00   3.4520000000000002E-03  -9.0270000000000003E-03   5.1440000000000001E-03
atom   2.0856659999999989E+00   1.6635500000000001E+00   6.5949410000000013E+00 Mg   0.0000000000000000E+00   0.0000000000000000E+00   1.0660000000000001E-03   2.1970000000000002E-03   1.5939999999999999E-03
atom   4.9464439999999996E+00   3.8503449999999999E+00   2.1841369999999993E+00 Mg   0.0000000000000000E+00   0.0000000000000000E+00   5.7670000000000004E-03  -5.6330000000000000E-03  -1.7570000000000001E-03
atom   7.8625140000000009E+00   2.2285200000000001E+00   7.2816480000000006E+00 Mg   0.0000000000000000E+00   0.0000000000000000E+00   7.0730000000000003E-03  -1.8619999999999999E-03  -7.7510000000000001E-03
atom  -3.2492439999999991E+00   8.7911319999999993E+00   2.4097840000000006E+00 Mg   0.0000000000000000E+00   0.0000000000000000E+00  -7.9459999999999999E-03   4.7549999999999997E-03  -1.0182000000000000E-02
atom   3.9818900000000068E-01   6.8676279999999990E+00   6.7078469999999992E+00 Mg   0.0000000000000000E+00   0.0000000000000000E+00  -1.2904000000000001E-02  -4.4580000000000002E-03   3.1370000000000000E-03
atom   2.1926249999999996E+00   8.8306509999999996E+00   1.9316450000000001E+00 Mg   0.0000000000000000E+00   0.0000000000000000E+00   1.7933000000000001E-02   1.0829999999999999E-02  -3.8890000000000001E-03
atom   5.7808109999999999E+00   7.2125950000000012E+00   6.7772970000000008E+00 Mg   0.0000000000000000E+00   0.0000000000000000E+00   1.0460000000000001E-02  -6.4770000000000001E-03  -6.9290000000000003E-03
atom  -4.1687730000000007E+00   8.4446069999999995E+00   1.7812510000000006E+00 Mg   0.0000000000000000E+00   0.0000000000000000E+00  -1.7210000000000001E-03   2.5149999999999999E-03  -4.9189999999999998E-03
atom  -1.0092189999999992E+00   6.4482410000000003E+00   6.2132740000000020E+00 Mg   0.0000000000000000E+00   0.0000000000000000E+00  -2.6220000000000002E-03   1.1364000000000001E-02   1.7550000000000000E-03
atom   2.4741359999999992E+00   8.5572990000000004E+00   1.1067809999999991E+00 Mg   0.0000000000000000E+00   0.0000000000000000E+00  -4.1399999999999998E-04   1.2423999999999999E-02   1.1294000000000000E-02
atom   4.7491049999999992E+00   7.4449119999999995E+00   6.8222230000000001E+00 Mg   0.0000000000000000E+00   0.0000000000000000E+00   4.6430000000000004E-03  -7.7400000000000004E-03   2.6999999999999999E-05
atom   1.7579800000000076E-01   3.0393360000000014E+00   1.9853120000000013E+00 Mg   0.0000000000000000E+00   0.0000000000000000E+00   1.7650000000000001E-03  -8.6260000000000000E-03  -7.2550000000000002E-03
atom   3.5372620000000010E+00   7.1729599999999794E-01   7.3737020000000015E+00 Mg   0.0000000000000000E+00   0.0000000000000000E+00   6.7699999999999998E-04   8.3230000000000005E-03  -4.4320000000000002E-03
atom   6.5779730000000001E+00   3.6160780000000003E+00   2.6594940000000005E+00 Mg   0.0000000000000000E+00   0.0000000000000000E+00   5.3260000000000000E-03  -1.5875000000000000E-02  -4.4600000000000004E-03
atom   9.4532380000000007E+00   1.0736059999999985E+00   7.1777230000000030E+00 Mg   0.0000000000000000E+00   0.0000000000000000E+00   2.6259999999999999E-03   3.3500000000000001E-03  -5.9249999999999997E-03
atom   8.4452999999999737E-02   3.4953479999999986E+00   1.6333189999999997E+00 Mg   0.0000000000000000E+00   0.0000000000000000E+00  -8.9680000000000003E-03  -1.0500000000000001E-02  -3.2280000000000000E-03
atom   2.7852219999999983E+00   7.7603899999999892E-01   6.6406320000000028E+00 Mg   0.0000000000000000E+00   0.0000000000000000E+00   4.5880000000000001E-03   4.6330000000000000E-03  -8.1290000000000008E-03
atom   5.7176080000000002E+00   2.3918189999999999E+00   1.2013950000000000E+00 Mg   0.0000000000000000E+00   0.0000000000000000E+00   3.3679999999999999E-03  -1.0080000000000000E-03   8.0050000000000000E-03
atom   8.9224419999999984E+00   1.2765990000000000E+00   7.1400360000000012E+00 Mg   0.0000000000000000E+00   0.0000000000000000E+00  -1.7849999999999999E-03  -2.7269999999999998E-03  -1.1223000000000000E-02
atom  -2.5037929999999999E+00   8.2879799999999992E+00   1.8260070000000002E+00 Mg   0.0000000000000000E+00   0.0000000000000000E+00  -7.4380000000000002E-03  -2.8379999999999998E-03  -3.4919999999999999E-03
atom   8.2155000000001407E-02   6.1812409999999973E+00   6.6551650000000038E+00 Mg   0.0000000000000000E+00   0.0000000000000000E+00   5.7829999999999999E-03   3.3010000000000001E-03   1.0253000000000000E-02
atom   3.4174390000000003E+00   7.8675620000000013E+00   2.4409009999999998E+00 Mg   0.0000000000000000E+00   0.0000000000000000E+00  -1.9440000000000000E-03   1.4297000000000001E-02  -6.7700000000000000E-03
atom   6.3582200000000002E+00   6.3355680000000003E+00   7.6093590000000004E+00 Mg   0.0000000000000000E+00   0.0000000000000000E+00   7.0299999999999996E-04  -2.9659999999999999E-03  -4.5480000000000000E-03
atom  -3.4250600000000011E+00   8.5388249999999992E+00   2.0622230000000021E+00 Mg   0.0000000000000000E+00   0.0000000000000000E+00   2.8739999999999998E-03  -6.7199999999999996E-04  -2.7910000000000001E-03
atom  -1.4618300000000231E-01   6.4759130000000003E+00   6.5239050000000018E+00 Mg   0.0000000000000000E+00   0.0000000000000000E+00  -2.9060000000000002E-03   1.7370000000000000E-03   4.7549999999999997E-03
atom   2.5852689999999994E+00   8.3647520000000011E+00   1.7501950000000004E+00 Mg   0.0000000000000000E+00   0.0000000000000000E+00   6.0629999999999998E-03   5.3299999999999997E-03  -7.2199999999999999E-04
atom   5.8535119999999985E+00   6.2756369999999961E+00   6.2910200000000023E+00 Mg   0.0000000000000000E+00   0.0000000000000000E+00  -6.8190000000000004E-03  -4.7159999999999997E-03  -2.2339999999999999E-03
energy  -5.6190902000000001E+01
charge   0.0000000000000000E+00
end
begin
comment  i =       50, time =       25.000, E =       -56.1799039069
lattice   1.2863867000000001E+01   0.0000000000000000E+00   0.0000000000000000E+00
lattice  -6.4319340000000000E+00   1.1140435999999999E+01   0.0000000000000000E+00
lattice   0.0000000000000000E+00   0.0000000000000000E+00   1.0330088999999999E+01
atom  -2.8628899999999985E-01   3.3955099999999994E+00   2.6222789999999998E+00 Mg   0.0000000000000000E+00   0.0000000000000000E+00   8.0429999999999998E-03   3.3549999999999999E-03  -3.0010000000000002E-03
atom   2.8933700000000000E+00   1.5710400000000000E+00   7.2457409999999998E+00 Mg   0.0000000000000000E+00   0.0000000000000000E+00  -2.1570000000000001E-03   6.4599999999999998E-04   1.2818000000000000E-02
atom   5.8549999999999995E+00   3.1783380000000001E+00   3.0761669999999999E+00 Mg   0.0000000000000000E+00   0.0000000000000000E+00   1.1420000000000000E-03   9.7630000000000008E-03  -1.5764000000000000E-02
atom   8.6904520000000005E+00   1.9868230000000000E+00   7.8997580000000012E+00 Mg   0.0000000000000000E+00   0.0000000000000000E+00   2.1222999999999999E-02  -2.1840000000000002E-03  -2.8849000000000000E-02
atom  -9.5057600000000275E-01   3.5639649999999996E+00   2.6585650000000003E+00 Mg   0.0000000000000000E+00   0.0000000000000000E+00   3.4090000000000001E-03  -5.1729999999999996E-03  -1.5730000000000000E-03
atom   2.0938450000000004E+00   2.1707450000000001E+00   7.2845800000000009E+00 Mg   0.0000000000000000E+00   0.0000000000000000E+00   2.3180000000000002E-03  -9.1950000000000000E-03  -9.6609999999999994E-03
atom   5.1456229999999987E+00   3.7818429999999998E+00   1.9658290000000000E+00 Mg   0.0000000000000000E+00   0.0000000000000000E+00   3.7290000000000001E-03  -1.1030000000000000E-03   1.2763999999999999E-02
atom   8.0114890000000010E+00   1.4843079999999997E+00   6.9507010000000005E+00 Mg   0.0000000000000000E+00   0.0000000000000000E+00  -1.6140000000000000E-03   3.9509999999999997E-03   4.4429999999999999E-03
atom  -2.6884420000000002E+00   8.4745069999999991E+00   2.3883770000000002E+00 Mg   0.0000000000000000E+00   0.0000000000000000E+00  -6.6900000000000000E-04   1.0425000000000000E-02   2.3999999999999998E-03
atom   6.6895499999999986E-01   6.7973679999999996E+00   7.1968900000000007E+00 Mg   0.0000000000000000E+00   0.0000000000000000E+00  -1.5075000000000000E-02   6.2059999999999997E-03   3.3779999999999999E-03