begin
comment  i =    12670, time =     6335.000, E =       -56.3669334762
lattice   1.2825481000000000E+01   0.0000000000000000E+00   0.0000000000000000E+00
lattice  -6.4127409999999996E+00   1.1107193000000001E+01   0.0000000000000000E+00
lattice   0.0000000000000000E+00   0.0000000000000000E+00   1.0299264000000001E+01
atom   3.8619999999998729E-03   3.5570170000000001E+00   2.3691949999999999E+00 Mg   0.0000000000000000E+00   0.0000000000000000E+00  -6.2600000000000004E-04  -1.5740000000000001E-03   2.1050000000000001E-03
atom   2.9154830000000000E+00   1.7066479999999999E+00   7.3432350000000000E+00 Mg   0.0000000000000000E+00   0.0000000000000000E+00   4.2000000000000002E-04   3.4900000000000003E-04  -2.2490000000000001E-03
atom   5.9640570000000004E+00   3.5483660000000006E+00   2.3373379999999999E+00 Mg   0.0000000000000000E+00   0.0000000000000000E+00   1.3590000000000000E-03  -1.7690000000000000E-03  -1.6180000000000001E-03
atom   9.0757130000000004E+00   1.7818590000000001E+00   7.1303900000000002E+00 Mg   0.0000000000000000E+00   0.0000000000000000E+00  -2.1400000000000000E-03  -8.7600000000000004E-04   1.3090000000000001E-03
atom  -7.7952100000000080E-01   3.5234270000000003E+00   2.5343700000000000E+00 Mg   0.0000000000000000E+00   0.0000000000000000E+00   6.6699999999999995E-04   6.9200000000000002E-04  -4.9100000000000001E-04
atom   2.2855260000000008E+00   1.7929400000000000E+00   7.5314959999999989E+00 Mg   0.0000000000000000E+00   0.0000000000000000E+00  -6.9999999999999994E-05  -1.3799999999999999E-04  -5.4349999999999997E-03
atom   5.3907200000000017E+00   3.5586880000000001E+00   2.4722080000000002E+00 Mg   0.0000000000000000E+00   0.0000000000000000E+00   6.8599999999999998E-04   5.4100000000000003E-04   1.3960000000000001E-03
atom   8.2496970000000012E+00   1.8159250000000000E+00   7.3872010000000001E+00 Mg   0.0000000000000000E+00   0.0000000000000000E+00   6.2799999999999998E-04  -3.5820000000000001E-03  -1.7690000000000000E-03
atom  -2.8735889999999999E+00   8.8644160000000003E+00   2.3601359999999998E+00 Mg   0.0000000000000000E+00   0.0000000000000000E+00  -3.3140000000000001E-03  -1.0809999999999999E-03   2.7759999999999998E-03
atom  -1.3638000000000014E-01   6.8195110000000003E+00   7.3650209999999996E+00 Mg   0.0000000000000000E+00   0.0000000000000000E+00   6.2399999999999999E-04   5.0450000000000000E-03  -4.3759999999999997E-03
atom   2.9028339999999990E+00   8.8267670000000003E+00   2.2896429999999999E+00 Mg   0.0000000000000000E+00   0.0000000000000000E+00   1.8330000000000000E-03  -1.0319999999999999E-03   2.6359999999999999E-03
atom   5.8726750000000010E+00   6.9951370000000006E+00   7.0730469999999999E+00 Mg   0.0000000000000000E+00   0.0000000000000000E+00   1.5670000000000000E-03  -1.2110000000000001E-03   2.7529999999999998E-03
atom  -3.8866940000000025E+00   8.8448139999999995E+00   2.4739840000000002E+00 Mg   0.0000000000000000E+00   0.0000000000000000E+00   3.3070000000000000E-03  -2.3890000000000001E-03  -1.2910000000000000E-03
atom  -7.3211200000000087E-01   6.9891439999999996E+00   7.4512270000000003E+00 Mg   0.0000000000000000E+00   0.0000000000000000E+00  -6.6500000000000001E-04   1.0700000000000000E-04  -2.6700000000000001E-03
atom   2.3867250000000015E+00   8.7013420000000004E+00   2.4103450000000000E+00 Mg   0.0000000000000000E+00   0.0000000000000000E+00  -2.1500000000000000E-03   1.4880000000000000E-03   1.8929999999999999E-03
atom   5.3434370000000007E+00   7.0289560000000009E+00   7.3405449999999997E+00 Mg   0.0000000000000000E+00   0.0000000000000000E+00  -3.4000000000000000E-05   1.7979999999999999E-03  -2.6619999999999999E-03
atom   3.2851999999999809E-01   2.9119099999999998E+00   2.4113850000000001E+00 Mg   0.0000000000000000E+00   0.0000000000000000E+00  -1.3339999999999999E-03  -4.5500000000000000E-04   5.3600000000000002E-04
atom   3.3341129999999986E+00   1.2721740000000006E+00   7.1543500000000000E+00 Mg   0.0000000000000000E+00   0.0000000000000000E+00  -1.0399999999999999E-04  -2.5400000000000002E-03   5.3559999999999997E-03
atom   6.3347759999999980E+00   3.0600110000000007E+00   2.4766670000000000E+00 Mg   0.0000000000000000E+00   0.0000000000000000E+00   3.1920000000000000E-03  -5.8000000000000000E-04  -1.8590000000000000E-03
atom   9.3421849999999989E+00   1.0770029999999990E+00   7.2403860000000000E+00 Mg   0.0000000000000000E+00   0.0000000000000000E+00  -3.2499999999999999E-04   1.2940000000000000E-03   1.1789999999999999E-03
atom  -3.4892199999999990E-01   2.9180219999999992E+00   2.5433140000000001E+00 Mg   0.0000000000000000E+00   0.0000000000000000E+00  -2.3800000000000001E-04   1.3450000000000001E-03  -6.1700000000000004E-04
atom   2.6107369999999981E+00   9.4061999999999946E-01   7.4612480000000003E+00 Mg   0.0000000000000000E+00   0.0000000000000000E+00  -4.4499999999999997E-04   3.1140000000000000E-03   1.2200000000000000E-04
atom   5.6444549999999989E+00   2.9596240000000016E+00   2.5168710000000001E+00 Mg   0.0000000000000000E+00   0.0000000000000000E+00  -1.2400000000000001E-04  -2.8300000000000001E-03  -1.7440000000000001E-03
atom   8.6668209999999988E+00   1.1113520000000019E+00   7.2545359999999999E+00 Mg   0.0000000000000000E+00   0.0000000000000000E+00   3.1700000000000001E-04  -8.7500000000000002E-04   4.3800000000000002E-04
atom  -2.7219400000000014E+00   8.1693400000000018E+00   2.4738720000000001E+00 Mg   0.0000000000000000E+00   0.0000000000000000E+00   1.2740000000000000E-03   6.4899999999999995E-04  -6.3400000000000001E-04
atom   1.6533099999999759E-01   6.4241540000000015E+00   7.2175109999999991E+00 Mg   0.0000000000000000E+00   0.0000000000000000E+00   4.6470000000000001E-03  -5.0500000000000002E-04   3.5799999999999997E-04
atom   3.4810119999999980E+00   8.0915130000000026E+00   2.1781250000000001E+00 Mg   0.0000000000000000E+00   0.0000000000000000E+00  -2.0780000000000000E-03   2.6350000000000002E-03   3.5509999999999999E-03
atom   6.3092029999999975E+00   6.4629150000000024E+00   7.2755819999999991E+00 Mg   0.0000000000000000E+00   0.0000000000000000E+00   2.3059999999999999E-03  -5.0500000000000002E-04  -1.9419999999999999E-03
atom  -3.3285260000000023E+00   8.2656210000000012E+00   2.4705879999999998E+00 Mg   0.0000000000000000E+00   0.0000000000000000E+00   1.4400000000000000E-04  -1.4690000000000000E-03   4.3899999999999999E-04
atom  -4.7443400000000102E-01   6.3442220000000020E+00   7.3725639999999997E+00 Mg   0.0000000000000000E+00   0.0000000000000000E+00   2.8790000000000000E-03  -6.0499999999999996E-04  -7.2999999999999999E-05
atom   2.6541069999999980E+00   8.2086390000000016E+00   2.4784020000000000E+00 Mg   0.0000000000000000E+00   0.0000000000000000E+00   1.7300000000000000E-04  -8.8999999999999995E-05   8.2700000000000004E-04
atom   5.7363779999999993E+00   6.3688109999999991E+00   7.2930320000000002E+00 Mg   0.0000000000000000E+00   0.0000000000000000E+00  -4.3229999999999996E-03  -5.7700000000000004E-04   1.6299999999999999E-03
atom   2.9457999999999797E-02   3.5812379999999999E+00   1.8413009999999981E+00 Mg   0.0000000000000000E+00   0.0000000000000000E+00  -7.7399999999999995E-04  -2.2049999999999999E-03   1.8720000000000000E-03
atom   2.9919980000000006E+00   1.5736589999999999E+00   6.6030650000000009E+00 Mg   0.0000000000000000E+00   0.0000000000000000E+00   9.7799999999999992E-04   1.5390000000000000E-03   3.0829999999999998E-03
atom   5.9540600000000001E+00   3.4640110000000002E+00   1.6902689999999982E+00 Mg   0.0000000000000000E+00   0.0000000000000000E+00   2.1660000000000000E-03  -1.8090000000000001E-03   1.5400000000000000E-04
atom   9.0328149999999994E+00   1.6835979999999999E+00   6.5596669999999975E+00 Mg   0.0000000000000000E+00   0.0000000000000000E+00  -6.2000000000000003E-05   1.3700000000000000E-04   1.1810000000000000E-03
atom  -6.9693500000000186E-01   3.3880089999999998E+00   1.9443799999999987E+00 Mg   0.0000000000000000E+00   0.0000000000000000E+00  -4.4600000000000000E-04   2.8299999999999999E-04   7.7600000000000000E-04
atom   2.4212319999999998E+00   1.9188540000000001E+00   6.8805649999999998E+00 Mg   0.0000000000000000E+00   0.0000000000000000E+00  -1.5100000000000001E-04  -2.9420000000000002E-03  -1.7810000000000000E-03
atom   5.3692530000000005E+00   3.7023799999999998E+00   1.9298019999999987E+00 Mg   0.0000000000000000E+00   0.0000000000000000E+00   1.2530000000000000E-03  -3.0079999999999998E-03   1.4460000000000000E-03
atom   8.4121919999999992E+00   1.6563730000000001E+00   6.6669459999999985E+00 Mg   0.0000000000000000E+00   0.0000000000000000E+00  -4.6000000000000001E-04   2.5070000000000001E-03   1.5319999999999999E-03
atom  -3.0028050000000004E+00   8.8049890000000008E+00   1.8998279999999985E+00 Mg   0.0000000000000000E+00   0.0000000000000000E+00   2.7099999999999997E-04   2.8300000000000001E-03  -6.8999999999999997E-04
atom  -2.4378999999999835E-02   6.8769070000000001E+00   6.6816409999999982E+00 Mg   0.0000000000000000E+00   0.0000000000000000E+00   3.7599999999999998E-04   2.9970000000000001E-03  -1.4210000000000000E-03
atom   3.0102179999999996E+00   8.7779589999999992E+00   1.6622469999999976E+00 Mg   0.0000000000000000E+00   0.0000000000000000E+00   5.1999999999999997E-05   6.2299999999999996E-04   3.5500000000000002E-03
atom   5.9213219999999991E+00   6.8345250000000011E+00   6.5751449999999982E+00 Mg   0.0000000000000000E+00   0.0000000000000000E+00   9.8999999999999999E-04   9.7599999999999998E-04   2.3490000000000000E-03
atom  -3.8389310000000005E+00   8.4233550000000008E+00   1.9727959999999978E+00 Mg   0.0000000000000000E+00   0.0000000000000000E+00   2.3920000000000000E-03   4.3839999999999999E-03  -1.9800000000000000E-03
atom  -6.3710999999999973E-01   6.8747879999999997E+00   6.8490249999999966E+00 Mg   0.0000000000000000E+00   0.0000000000000000E+00  -3.3270000000000001E-03   2.0309999999999998E-03  -3.8400000000000001E-04
atom   2.3388659999999972E+00   8.6542870000000001E+00   1.9095109999999984E+00 Mg   0.0000000000000000E+00   0.0000000000000000E+00  -2.4169999999999999E-03   2.1949999999999999E-03  -4.4400000000000000E-04
atom   5.4458799999999998E+00   7.1354040000000003E+00   6.7567879999999994E+00 Mg   0.0000000000000000E+00   0.0000000000000000E+00   5.6899999999999995E-04  -1.3790000000000000E-03  -2.2400000000000000E-04
atom   2.9145399999999994E-01   2.8161989999999988E+00   1.8458599999999987E+00 Mg   0.0000000000000000E+00   0.0000000000000000E+00   1.9490000000000000E-03   5.0699999999999996E-04  -5.0600000000000005E-04
atom   3.4581759999999990E+00   1.2872269999999992E+00   6.7690850000000005E+00 Mg   0.0000000000000000E+00   0.0000000000000000E+00   1.1069999999999999E-03  -2.2420000000000001E-03  -1.2940000000000000E-03
atom   6.5300249999999993E+00   2.9649190000000005E+00   1.9463529999999976E+00 Mg   0.0000000000000000E+00   0.0000000000000000E+00  -9.9400000000000009E-04  -1.1180000000000001E-03  -2.5999999999999999E-03
atom   9.4800769999999996E+00   1.1575770000000010E+00   6.9213179999999985E+00 Mg   0.0000000000000000E+00   0.0000000000000000E+00  -5.7899999999999998E-04   3.2699999999999998E-04  -4.4500000000000000E-03
atom  -3.3854800000000201E-01   2.8815949999999999E+00   2.0447529999999978E+00 Mg   0.0000000000000000E+00   0.0000000000000000E+00   6.9300000000000004E-04  -7.2700000000000000E-04  -3.3319999999999999E-03
atom   2.6444879999999991E+00   9.4122600000000145E-01   6.7422709999999988E+00 Mg   0.0000000000000000E+00   0.0000000000000000E+00   2.0019999999999999E-03   1.4369999999999999E-03   1.4790000000000001E-03
atom   5.6902379999999999E+00   2.8104640000000001E+00   1.8424469999999997E+00 Mg   0.0000000000000000E+00   0.0000000000000000E+00  -7.4299999999999995E-04  -6.3500000000000004E-04   1.1310000000000001E-03
atom   8.7639629999999986E+00   1.0403790000000015E+00   6.7025599999999974E+00 Mg   0.0000000000000000E+00   0.0000000000000000E+00  -1.7799999999999999E-03   1.6249999999999999E-03   5.6499999999999996E-04
atom  -2.5569540000000015E+00   8.1079369999999997E+00   1.9039049999999988E+00 Mg   0.0000000000000000E+00   0.0000000000000000E+00  -3.7500000000000001E-04  -1.3330000000000000E-03   5.5999999999999999E-05
atom   4.2028299999999935E-01   6.2597800000000010E+00   6.8012109999999977E+00 Mg   0.0000000000000000E+00   0.0000000000000000E+00  -2.3900000000000001E-04   2.5950000000000001E-03  -4.1070000000000004E-03
atom   3.4785979999999994E+00   8.0535890000000006E+00   1.6056639999999986E+00 Mg   0.0000000000000000E+00   0.0000000000000000E+00  -2.1960000000000000E-03   1.2409999999999999E-03   4.6270000000000000E-03
atom   6.7256099999999988E+00   6.5138340000000028E+00   6.5782279999999993E+00 Mg   0.0000000000000000E+00   0.0000000000000000E+00  -1.4710000000000001E-03  -3.8999999999999999E-05   9.7400000000000004E-04
atom  -3.1011500000000018E+00   8.2484759999999984E+00   1.8658119999999987E+00 Mg   0.0000000000000000E+00   0.0000000000000000E+00  -1.7930000000000001E-03  -1.0250000000000001E-03   2.2230000000000001E-03
atom  -4.5145000000003287E-02   6.3735180000000007E+00   6.7220409999999999E+00 Mg   0.0000000000000000E+00   0.0000000000000000E+00  -4.5050000000000003E-03  -9.6400000000000001E-04   2.8720000000000000E-03
atom   2.8943509999999977E+00   8.1506609999999995E+00   1.9535069999999972E+00 Mg   0.0000000000000000E+00   0.0000000000000000E+00  -8.0800000000000002E-04  -4.1599999999999997E-04  -4.0210000000000003E-03
atom   5.7938350000000014E+00   6.3418209999999977E+00   6.8750529999999968E+00 Mg   0.0000000000000000E+00   0.0000000000000000E+00   2.6899999999999998E-04  -2.7669999999999999E-03  -2.5089999999999999E-03
energy  -5.6366933000000003E+01
charge   0.0000000000000000E+00
end
begin
comment  i =      770, time =      385.000, E =       -55.9102857116
lattice   1.3396863000000000E+01   0.0000000000000000E+00   0.0000000000000000E+00
lattice  -6.6984320000000004E+00   1.1602024000000000E+01   0.0000000000000000E+00
lattice   0.0000000000000000E+00   0.0000000000000000E+00   1.0758101999999999E+01
atom  -2.1220360000000000E+00   3.9091650000000002E+00   4.0627500000000003E+00 Mg   0.0000000000000000E+00   0.0000000000000000E+00  -2.6899999999999998E-04   7.8440000000000003E-03   6.7400000000000003E-03
atom   6.0445799999999994E-01   2.4455520000000002E+00   9.3007620000000006E+00 Mg   0.0000000000000000E+00   0.0000000000000000E+00  -4.2050000000000004E-03  -2.9911000000000000E-02  -5.2440000000000004E-03
atom   4.3097669999999999E+00   3.8372870000000003E+00   5.1602129999999997E+00 Mg   0.0000000000000000E+00   0.0000000000000000E+00  -7.1840000000000003E-03   2.0200000000000001E-03  -1.1524000000000000E-02
atom   8.5837180000000011E+00   3.9076749999999998E+00   8.4762100000000000E+00 Mg   0.0000000000000000E+00   0.0000000000000000E+00   9.6310000000000007E-03  -3.8670000000000002E-03  -5.5999999999999995E-04
atom   1.0946676000000002E+01   3.9804320000000004E+00   3.2080940000000000E+00 Mg   0.0000000000000000E+00   0.0000000000000000E+00   3.0490000000000001E-03  -1.1882000000000000E-02  -5.4000000000000001E-04
atom   1.5613920000000008E+00   2.6329250000000002E+00   9.5551390000000005E+00 Mg   0.0000000000000000E+00   0.0000000000000000E+00   2.1059999999999998E-03   2.7330000000000002E-03  -3.2190000000000001E-03
atom   3.4250870000000027E+00   5.2574890000000005E+00   2.0464319999999998E+00 Mg   0.0000000000000000E+00   0.0000000000000000E+00   1.9050000000000000E-03  -2.1423000000000001E-02  -1.1795000000000000E-02
atom   4.6200550000000034E+00   1.0953379999999999E+00   4.9433520000000000E+00 Mg   0.0000000000000000E+00   0.0000000000000000E+00  -2.9320000000000001E-03  -2.0349999999999999E-03   2.3300000000000000E-03
atom  -1.6579260000000005E+00   1.0239412000000000E+01   3.3714089999999999E+00 Mg   0.0000000000000000E+00   0.0000000000000000E+00   3.3540000000000002E-03  -1.9150000000000000E-03  -2.2139999999999998E-03
atom   8.2022499999999954E-01   7.4584870000000008E+00   8.6243429999999996E+00 Mg   0.0000000000000000E+00   0.0000000000000000E+00   2.9889999999999999E-03   1.7092000000000000E-02  -6.0439999999999999E-03
atom   1.2171572000000001E+01   4.3059599999999920E-01   2.0522640000000001E+00 Mg   0.0000000000000000E+00   0.0000000000000000E+00   1.3159999999999999E-03  -8.5800000000000008E-03  -2.6159999999999998E-03
atom   6.5693210000000004E+00   1.0615851000000001E+01   9.4698700000000002E+00 Mg   0.0000000000000000E+00   0.0000000000000000E+00   4.2300000000000003E-03  -1.8003000000000002E-02  -5.8000000000000000E-04
atom  -2.3979380000000008E+00   9.6021450000000002E+00   2.1321159999999999E+00 Mg   0.0000000000000000E+00   0.0000000000000000E+00  -3.3709999999999999E-03   7.0410000000000004E-03  -7.6829999999999997E-03
atom  -3.4137400000000023E-01   8.0307820000000003E+00   7.1025629999999991E+00 Mg   0.0000000000000000E+00   0.0000000000000000E+00   5.2189999999999997E-03  -1.0889999999999999E-03   1.7179999999999999E-03
atom   3.4998870000000020E+00   9.9180890000000002E+00   2.7039609999999996E+00 Mg   0.0000000000000000E+00   0.0000000000000000E+00   1.5740000000000001E-03   3.9019999999999999E-02  -1.1854000000000000E-02
atom   6.2201020000000051E+00   7.8598460000000010E+00   7.0269339999999998E+00 Mg   0.0000000000000000E+00   0.0000000000000000E+00   1.1900000000000001E-04  -1.5910000000000000E-03   3.4200000000000002E-04
atom   2.4077740000000016E+00   3.3113829999999989E+00   4.0217020000000003E+00 Mg   0.0000000000000000E+00   0.0000000000000000E+00  -1.4281000000000000E-02   6.6319999999999999E-03   2.7399999999999998E-03
atom   5.3463210000000005E+00   1.2064290000000009E+00   8.4843679999999999E+00 Mg   0.0000000000000000E+00   0.0000000000000000E+00  -1.0765000000000000E-02   2.4900000000000000E-03   6.6600000000000003E-04
atom   6.5074540000000001E+00   5.3912090000000017E+00   1.8743540000000001E+00 Mg   0.0000000000000000E+00   0.0000000000000000E+00   8.3070000000000001E-03  -4.8770000000000003E-03  -2.2020000000000001E-02
atom   1.0481987000000002E+01   3.2317460000000002E+00   7.0497360000000002E+00 Mg   0.0000000000000000E+00   0.0000000000000000E+00  -3.1900000000000001E-03   1.9269999999999999E-03  -6.7210000000000004E-03
atom  -1.5233459999999996E+00   6.0576480000000021E+00   2.2698909999999999E+00 Mg   0.0000000000000000E+00   0.0000000000000000E+00   1.3986999999999999E-02   4.9979999999999998E-03  -5.9519999999999998E-03
atom   3.3558460000000023E+00   2.6229900000000010E+00   6.1587179999999995E+00 Mg   0.0000000000000000E+00   0.0000000000000000E+00   3.5780000000000000E-03  -2.4620000000000002E-03  -1.5382000000000000E-02
atom   8.6939510000000020E+00   4.3929890000000000E+00   1.6397560000000000E+00 Mg   0.0000000000000000E+00   0.0000000000000000E+00   9.5960000000000004E-03  -9.4600000000000001E-04  -3.6299999999999999E-04
atom   9.9282220000000017E+00   2.0352190000000001E+00   7.0886750000000003E+00 Mg   0.0000000000000000E+00   0.0000000000000000E+00  -2.5130000000000000E-03  -8.2649999999999998E-03   1.0763000000000000E-02
atom   5.7374100000000006E+00   8.6503430000000012E+00   3.8953519999999995E+00 Mg   0.0000000000000000E+00   0.0000000000000000E+00   1.7365999999999999E-02  -6.5529999999999998E-03  -5.3249999999999999E-03
atom  -4.1831600000000002E-01   7.9539540000000013E+00   7.3943320000000003E+00 Mg   0.0000000000000000E+00   0.0000000000000000E+00   6.1289999999999999E-03   8.0380000000000000E-03  -9.0899999999999998E-04
atom   5.1420800000000011E-01   9.4278350000000000E+00   2.3568609999999999E+00 Mg   0.0000000000000000E+00   0.0000000000000000E+00   5.7780000000000001E-03   1.2060000000000000E-03   4.9600000000000002E-04
atom   5.8626500000000004E+00   8.0568260000000009E+00   6.2691670000000004E+00 Mg   0.0000000000000000E+00   0.0000000000000000E+00  -2.6940000000000002E-03   1.0206000000000000E-02   9.3790000000000002E-03
atom  -3.9665059999999981E+00   1.0606466999999999E+01   1.0108496999999998E+01 Mg   0.0000000000000000E+00   0.0000000000000000E+00  -1.3856000000000000E-02  -5.7640000000000000E-03   7.8930000000000007E-03
atom   9.0339600000000164E-01   7.4573730000000014E+00   7.6424960000000004E+00 Mg   0.0000000000000000E+00   0.0000000000000000E+00  -3.0899999999999999E-03   1.6295000000000000E-02  -1.0460000000000001E-02
atom   3.6354210000000022E+00   4.2064380000000003E+00   1.0619850999999999E+01 Mg   0.0000000000000000E+00   0.0000000000000000E+00  -8.8739999999999999E-03   8.9990000000000001E-03   2.5441999999999999E-02
atom   7.0294990000000022E+00   6.1940970000000002E+00   9.7138679999999997E+00 Mg   0.0000000000000000E+00   0.0000000000000000E+00  -1.0559000000000001E-02  -5.7000000000000003E-05   1.6280000000000001E-03
atom  -6.0434199999999993E-01   3.5770830000000000E+00   4.8742550000000024E+00 Mg   0.0000000000000000E+00   0.0000000000000000E+00   4.1660000000000004E-03  -3.5469999999999998E-03   9.0189999999999992E-03
atom  -4.4810400000000001E+00   1.1357474999999999E+01   8.1061160000000019E+00 Mg   0.0000000000000000E+00   0.0000000000000000E+00  -3.8070000000000001E-03  -1.1490000000000001E-03   4.1260000000000003E-03
atom   4.7671280000000014E+00   3.8547530000000001E+00   1.7843810000000022E+00 Mg   0.0000000000000000E+00   0.0000000000000000E+00   8.8280000000000008E-03   2.8903999999999999E-02   2.2150000000000000E-03
atom   2.7907189999999997E+00   1.0007707000000000E+01   7.5656680000000005E+00 Mg   0.0000000000000000E+00   0.0000000000000000E+00  -5.2579999999999997E-03   1.0059999999999999E-02   7.4700000000000005E-04
atom   1.0813489000000002E+01   2.1077399999999999E-01   1.9392649999999994E+00 Mg   0.0000000000000000E+00   0.0000000000000000E+00   4.1390000000000003E-03   1.6836000000000000E-02   7.8650000000000005E-03
atom   4.6126560000000021E+00   2.5630139999999999E+00   4.8173169999999992E+00 Mg   0.0000000000000000E+00   0.0000000000000000E+00  -3.3969999999999998E-03   9.6989999999999993E-03  -3.0379999999999999E-03
atom   7.9850130000000012E+00   4.8005340000000007E+00   5.6706500000000182E-01 Mg   0.0000000000000000E+00   0.0000000000000000E+00  -8.2070000000000008E-03   1.9100000000000000E-03  -1.1802999999999999E-02
atom   7.8927179999999995E+00   7.0801400000000014E-01   9.2111799999999988E+00 Mg   0.0000000000000000E+00   0.0000000000000000E+00   3.1110000000000001E-03   3.1319999999999998E-03  -9.4619999999999999E-03
atom  -1.3149860000000000E+00   8.7494829999999997E+00   3.1785600000000001E+00 Mg   0.0000000000000000E+00   0.0000000000000000E+00   1.2643000000000000E-02   3.8960000000000002E-03   5.2379999999999996E-03
atom   8.3585100000000001E-01   6.5770800000000005E+00   9.7044639999999998E+00 Mg   0.0000000000000000E+00   0.0000000000000000E+00   2.0805000000000001E-02  -6.6379999999999998E-03  -2.5810000000000000E-03
atom   4.1304520000000000E+00   8.4451199999999993E+00   4.9439800000000016E+00 Mg   0.0000000000000000E+00   0.0000000000000000E+00   7.4489999999999999E-03  -3.0070000000000001E-03   1.7580000000000000E-03
atom   7.0176210000000001E+00   4.4859770000000001E+00   8.3684270000000005E+00 Mg   0.0000000000000000E+00   0.0000000000000000E+00  -4.4099999999999999E-03   2.9069999999999999E-03  -2.3100000000000000E-04
atom  -2.6499489999999972E+00   6.1437150000000003E+00   2.7837089999999987E+00 Mg   0.0000000000000000E+00   0.0000000000000000E+00  -1.1212000000000000E-02   4.9170000000000004E-03  -1.5939999999999999E-02
atom  -6.3931499999999908E-01   5.9518980000000008E+00   7.3992799999999983E+00 Mg   0.0000000000000000E+00   0.0000000000000000E+00   1.2676000000000000E-02  -1.3720000000000000E-03   1.4360000000000000E-02
atom   3.4347510000000034E+00   7.7269329999999998E+00   1.6052470000000003E+00 Mg   0.0000000000000000E+00   0.0000000000000000E+00  -1.1279000000000001E-02   4.4500000000000000E-03   3.6640000000000002E-03
atom   7.8602270000000019E+00   7.8499749999999997E+00   8.1162520000000011E+00 Mg   0.0000000000000000E+00   0.0000000000000000E+00  -1.6111000000000000E-02  -6.3249999999999999E-03  -2.1229999999999999E-03
atom   1.6318589999999999E+00   6.0418499999999975E-01   2.3810280000000006E+00 Mg   0.0000000000000000E+00   0.0000000000000000E+00  -6.8329999999999997E-03   4.1790000000000004E-03  -1.0647999999999999E-02
atom   2.5652720000000002E+00   2.0860450000000013E+00   7.6792400000000001E+00 Mg   0.0000000000000000E+00   0.0000000000000000E+00   6.4099999999999997E-04  -4.0340000000000003E-03   2.4027000000000000E-02
atom   9.2187619999999999E+00   1.3611990000000007E+00   1.6546980000000022E+00 Mg   0.0000000000000000E+00   0.0000000000000000E+00  -1.5960000000000000E-03   5.0359999999999997E-03   1.2840000000000001E-02
atom   7.7722619999999996E+00   8.6586700000000139E-01   7.5815579999999994E+00 Mg   0.0000000000000000E+00   0.0000000000000000E+00   6.9610000000000002E-03  -1.3240000000000001E-03   3.0130000000000001E-03
atom   1.9781330000000055E+00   4.6489480000000007E+00   6.1615700000000140E-01 Mg   0.0000000000000000E+00   0.0000000000000000E+00  -1.2593999999999999E-02  -2.6318999999999999E-02   1.0987000000000000E-02
atom   1.8788890000000025E+00   8.7901199999999879E-01   6.0273329999999996E+00 Mg   0.0000000000000000E+00   0.0000000000000000E+00  -1.2326999999999999E-02  -1.5330000000000000E-02  -1.4389000000000001E-02
atom   5.1292160000000013E+00   7.7170000000002376E-02   4.1736100000000081E-01 Mg   0.0000000000000000E+00   0.0000000000000000E+00   1.2231000000000001E-02   3.1459999999999999E-03   9.0200000000000002E-03
atom   7.6631390000000019E+00   4.0978800000000254E-01   5.9406630000000025E+00 Mg   0.0000000000000000E+00   0.0000000000000000E+00   8.1180000000000002E-03  -7.4240000000000000E-03   5.9839999999999997E-03
atom  -1.8301400000000019E+00   9.3910800000000005E+00   2.6323720000000006E+00 Mg   0.0000000000000000E+00   0.0000000000000000E+00  -9.9159999999999995E-03  -7.6540000000000002E-03  -4.6839999999999998E-03
atom  -1.6561800000000043E-01   5.0590780000000013E+00   4.7347270000000004E+00 Mg   0.0000000000000000E+00   0.0000000000000000E+00  -1.5821000000000002E-02   5.1120000000000002E-03   7.2880000000000002E-03
atom   3.2347530000000000E+00   6.0458320000000016E+00   3.9002900000000029E-01 Mg   0.0000000000000000E+00   0.0000000000000000E+00  -1.5299999999999999E-03  -2.2072999999999999E-02  -9.5390000000000006E-03
atom   7.1185880000000008E+00   6.0042480000000014E+00   4.8363010000000006E+00 Mg   0.0000000000000000E+00   0.0000000000000000E+00   2.7740000000000000E-03  -7.9480000000000002E-03   8.5909999999999997E-03
atom  -3.3087099999999978E+00   7.1347239999999994E+00   3.7707500000000133E-01 Mg   0.0000000000000000E+00   0.0000000000000000E+00  -6.7349999999999997E-03   8.7110000000000000E-03  -1.1770000000000001E-03
atom  -6.2100999999997956E-02   6.8297680000000032E+00   5.3067809999999973E+00 Mg   0.0000000000000000E+00   0.0000000000000000E+00  -1.6261000000000001E-02  -5.3080000000000002E-03   2.1312000000000001E-02
atom   2.4981580000000005E+00   1.0031468000000002E+01   1.8618499999999991E+00 Mg   0.0000000000000000E+00   0.0000000000000000E+00   6.5440000000000003E-03  -6.9890000000000004E-03  -5.6460000000000000E-03
atom   5.1224170000000022E+00   5.4640440000000030E+00   4.5863590000000025E+00 Mg   0.0000000000000000E+00   0.0000000000000000E+00   2.3757000000000000E-02   6.2280000000000000E-03   7.2000000000000002E-05
energy  -5.5910285999999999E+01
charge   0.0000000000000000E+00
end
