begin
comment  i =     4900, time =     2450.000, E =       -56.1718406748
lattice   1.3208211000000000E+01   0.0000000000000000E+00   0.0000000000000000E+00
lattice  -6.6041059999999998E+00   1.1438646000000000E+01   0.0000000000000000E+00
lattice   0.0000000000000000E+00   0.0000000000000000E+00   1.0606608000000000E+01
atom  -1.9596499999999994E-01   3.5390810000000004E+00   2.3023449999999999E+00 Mg   0.0000000000000000E+00   0.0000000000000000E+00   9.9900000000000010E-04  -4.6899999999999997E-03   4.8230000000000000E-03
atom   3.0252040000000000E+00   2.1343600000000005E+00   7.7779700000000007E+00 Mg   0.0000000000000000E+00   0.0000000000000000E+00   4.6920000000000000E-03  -1.8630000000000001E-03  -3.7410000000000000E-03
atom   6.3036820000000002E+00   3.9751770000000004E+00   2.6231800000000005E+00 Mg   0.0000000000000000E+00   0.0000000000000000E+00   8.4800000000000001E-04  -1.0487000000000000E-02   6.1499999999999999E-04
atom   9.4011660000000017E+00   2.0150810000000003E+00   7.4385209999999997E+00 Mg   0.0000000000000000E+00   0.0000000000000000E+00   2.9740000000000001E-03  -7.7530000000000003E-03  -1.2071000000000000E-02
atom  -5.1059299999999985E-01   3.1757630000000008E+00   2.3148749999999998E+00 Mg   0.0000000000000000E+00   0.0000000000000000E+00   5.2599999999999999E-04   8.5509999999999996E-03   1.4590000000000000E-03
atom   2.4756049999999994E+00   1.8761230000000002E+00   7.3661280000000007E+00 Mg   0.0000000000000000E+00   0.0000000000000000E+00   3.0049999999999999E-03  -5.5669999999999999E-03   5.5319999999999996E-03
atom   5.5590859999999962E+00   4.2395680000000011E+00   3.3112790000000003E+00 Mg   0.0000000000000000E+00   0.0000000000000000E+00   1.2660000000000000E-03  -5.3969999999999999E-03  -6.8830000000000002E-03
atom   8.7246579999999980E+00   9.2668300000000026E-01   6.9516280000000013E+00 Mg   0.0000000000000000E+00   0.0000000000000000E+00  -7.8110000000000002E-03   1.4376999999999999E-02   1.3246000000000001E-02
atom  -2.9977700000000005E+00   8.7316130000000012E+00   3.1539680000000003E+00 Mg   0.0000000000000000E+00   0.0000000000000000E+00  -8.1089999999999999E-03   7.6649999999999999E-03   2.7729999999999999E-03
atom  -7.4112299999999975E-01   6.6910470000000011E+00   8.0386500000000005E+00 Mg   0.0000000000000000E+00   0.0000000000000000E+00   2.7550000000000001E-03   3.4399999999999999E-03  -1.7630000000000000E-03
atom   2.8306789999999995E+00   8.3330100000000016E+00   2.6495440000000006E+00 Mg   0.0000000000000000E+00   0.0000000000000000E+00  -5.7399999999999997E-04   1.1396999999999999E-02   4.8549999999999999E-03
atom   6.1923329999999996E+00   7.3768600000000006E+00   7.5969259999999998E+00 Mg   0.0000000000000000E+00   0.0000000000000000E+00  -1.7400000000000000E-04  -2.7999999999999998E-04   1.2830000000000001E-03
atom  -4.1272400000000005E+00   9.1753350000000022E+00   2.7786940000000007E+00 Mg   0.0000000000000000E+00   0.0000000000000000E+00   6.9899999999999997E-03  -1.0950000000000001E-03  -6.5499999999999998E-04
atom  -8.1467700000000010E-01   7.1004450000000006E+00   7.4804230000000009E+00 Mg   0.0000000000000000E+00   0.0000000000000000E+00  -2.5100000000000001E-03   4.9069999999999999E-03   3.5360000000000001E-03
atom   2.0983269999999972E+00   9.0587370000000025E+00   2.8273160000000006E+00 Mg   0.0000000000000000E+00   0.0000000000000000E+00  -6.3000000000000000E-05   3.5349999999999999E-03  -9.7400000000000004E-04
atom   5.0811109999999973E+00   8.2573640000000026E+00   7.9793550000000009E+00 Mg   0.0000000000000000E+00   0.0000000000000000E+00   3.0430000000000001E-03  -8.9269999999999992E-03   6.2789999999999999E-03
atom   1.1877899999999894E-01   2.9795130000000025E+00   2.0345290000000000E+00 Mg   0.0000000000000000E+00   0.0000000000000000E+00   3.4670000000000000E-03  -4.0099999999999999E-04   1.3250000000000000E-02
atom   2.6876699999999993E+00   1.5692600000000028E+00   7.5404260000000010E+00 Mg   0.0000000000000000E+00   0.0000000000000000E+00   1.3827000000000001E-02  -6.5150000000000000E-03  -6.9499999999999996E-03
atom   6.0191789999999985E+00   2.3298540000000019E+00   1.7416190000000003E+00 Mg   0.0000000000000000E+00   0.0000000000000000E+00   1.2684000000000001E-02   4.9090000000000002E-03   1.9081000000000001E-02
atom   1.0173511000000000E+01   1.2090550000000020E+00   7.2602680000000008E+00 Mg   0.0000000000000000E+00   0.0000000000000000E+00  -7.7270000000000004E-03  -1.0690000000000001E-03  -6.8989999999999998E-03
atom   8.9980999999997452E-02   2.9958880000000012E+00   2.0437940000000001E+00 Mg   0.0000000000000000E+00   0.0000000000000000E+00  -1.4567999999999999E-02  -1.0120000000000001E-02  -6.0000000000000002E-06
atom   3.0251000000000001E+00   2.1772390000000033E+00   7.0932380000000013E+00 Mg   0.0000000000000000E+00   0.0000000000000000E+00  -1.1800000000000001E-03  -9.7330000000000003E-03   1.8699999999999999E-03
atom   5.8704469999999986E+00   3.2462700000000013E+00   2.0530059999999999E+00 Mg   0.0000000000000000E+00   0.0000000000000000E+00   4.9930000000000000E-03  -4.9519999999999998E-03   7.2240000000000004E-03
atom   8.7390209999999993E+00   1.6710970000000016E+00   7.8963590000000012E+00 Mg   0.0000000000000000E+00   0.0000000000000000E+00  -3.0450000000000000E-03  -2.1050000000000001E-03  -8.5900000000000004E-03
atom  -2.3224580000000024E+00   8.5408590000000046E+00   2.4349620000000001E+00 Mg   0.0000000000000000E+00   0.0000000000000000E+00  -2.8200000000000000E-03   1.1320000000000000E-03   5.9610000000000002E-03
atom   6.3997499999999896E-01   6.6195990000000027E+00   7.3718459999999997E+00 Mg   0.0000000000000000E+00   0.0000000000000000E+00  -7.5649999999999997E-03   8.0750000000000006E-03  -2.8370000000000001E-03
atom   3.7542269999999993E+00   8.7862340000000021E+00   2.1157970000000001E+00 Mg   0.0000000000000000E+00   0.0000000000000000E+00  -2.4610000000000001E-03  -5.9329999999999999E-03   9.4479999999999998E-03
atom   6.5930939999999980E+00   6.5277720000000050E+00   7.3027360000000003E+00 Mg   0.0000000000000000E+00   0.0000000000000000E+00   1.6490000000000001E-03   1.8489999999999999E-03  -1.0422000000000001E-02
atom  -3.1482620000000034E+00   7.6968190000000041E+00   2.4312559999999999E+00 Mg   0.0000000000000000E+00   0.0000000000000000E+00  -1.2078999999999999E-02   5.6670000000000002E-03  -1.9469999999999999E-03
atom  -5.6427300000000147E-01   6.5470800000000020E+00   7.3768789999999997E+00 Mg   0.0000000000000000E+00   0.0000000000000000E+00   4.1000000000000000E-05   1.5640000000000001E-03   7.2069999999999999E-03
atom   2.5179639999999970E+00   7.5818240000000028E+00   2.7073030000000000E+00 Mg   0.0000000000000000E+00   0.0000000000000000E+00   8.9040000000000005E-03   1.3469999999999999E-02  -1.1436999999999999E-02
atom   6.2372249999999951E+00   6.9492810000000054E+00   7.1516299999999999E+00 Mg   0.0000000000000000E+00   0.0000000000000000E+00   8.0520000000000001E-03  -5.7149999999999996E-03   7.7650000000000002E-03
atom   9.8062999999999734E-02   3.3267710000000004E+00   2.2110250000000011E+00 Mg   0.0000000000000000E+00   0.0000000000000000E+00   3.5260000000000001E-03   5.3060000000000000E-03  -4.1019999999999997E-03
atom   3.1905660000000000E+00   1.6518270000000002E+00   7.0245780000000018E+00 Mg   0.0000000000000000E+00   0.0000000000000000E+00   2.0330000000000001E-03   1.2037000000000001E-02   2.3519999999999999E-03
atom   7.1222739999999991E+00   3.6469220000000009E+00   1.3333580000000023E+00 Mg   0.0000000000000000E+00   0.0000000000000000E+00  -8.9009999999999992E-03  -3.4329999999999999E-03   1.1165000000000000E-02
atom   9.1342839999999992E+00   2.2046200000000002E+00   6.6282390000000007E+00 Mg   0.0000000000000000E+00   0.0000000000000000E+00   3.9730000000000000E-03  -3.2230000000000002E-03  -3.1649999999999998E-03
atom  -2.6819600000000043E-01   3.3940630000000009E+00   1.7001360000000025E+00 Mg   0.0000000000000000E+00   0.0000000000000000E+00  -5.8910000000000004E-03   3.0780000000000000E-03   2.8219999999999999E-03
atom   2.0114770000000002E+00   1.2867830000000002E+00   7.0735440000000018E+00 Mg   0.0000000000000000E+00   0.0000000000000000E+00   8.3549999999999996E-03   9.6889999999999997E-03  -2.5680000000000000E-03
atom   5.2868689999999994E+00   3.4610690000000006E+00   2.4531340000000021E+00 Mg   0.0000000000000000E+00   0.0000000000000000E+00   8.0330000000000002E-03  -5.2499999999999997E-04  -5.9940000000000002E-03
atom   9.1056569999999990E+00   1.8793760000000004E+00   6.9489560000000026E+00 Mg   0.0000000000000000E+00   0.0000000000000000E+00  -1.1601999999999999E-02  -5.5300000000000000E-04   4.5820000000000001E-03
atom  -2.2669330000000003E+00   9.3027950000000015E+00   2.4661600000000008E+00 Mg   0.0000000000000000E+00   0.0000000000000000E+00  -8.9990000000000001E-03  -1.8530000000000000E-03  -6.9499999999999996E-03
atom  -8.6481699999999995E-01   7.5040080000000016E+00   7.5341740000000037E+00 Mg   0.0000000000000000E+00   0.0000000000000000E+00   9.9889999999999996E-03  -3.6040000000000000E-03  -3.4840000000000001E-03
atom   3.4799040000000003E+00   8.2187710000000020E+00   2.2443040000000001E+00 Mg   0.0000000000000000E+00   0.0000000000000000E+00  -8.7840000000000001E-03   2.2780000000000001E-03  -6.0029999999999997E-03
atom   6.0175689999999999E+00   7.3210610000000012E+00   7.0714370000000022E+00 Mg   0.0000000000000000E+00   0.0000000000000000E+00   2.6069999999999999E-03  -7.3200000000000001E-03   4.4949999999999999E-03
atom  -4.0973770000000007E+00   8.8983550000000022E+00   2.1123100000000017E+00 Mg   0.0000000000000000E+00   0.0000000000000000E+00   1.4345000000000000E-02  -1.1559999999999999E-03  -1.8910000000000001E-03
atom  -5.8045399999999925E-01   7.0967490000000009E+00   6.9537230000000019E+00 Mg   0.0000000000000000E+00   0.0000000000000000E+00  -8.7860000000000004E-03  -2.9120000000000001E-03   5.9639999999999997E-03
atom   2.5436579999999984E+00   8.7622410000000013E+00   2.7161240000000024E+00 Mg   0.0000000000000000E+00   0.0000000000000000E+00  -2.0070000000000001E-03   6.6340000000000001E-03  -1.3335000000000000E-02
atom   5.1764339999999978E+00   7.0232540000000006E+00   7.4061530000000024E+00 Mg   0.0000000000000000E+00   0.0000000000000000E+00   4.6030000000000003E-03  -2.9169999999999999E-03   6.2839999999999997E-03
atom   5.4098999999999925E-02   2.9631260000000004E+00   1.8378290000000019E+00 Mg   0.0000000000000000E+00   0.0000000000000000E+00   5.8200000000000005E-04   2.4499999999999999E-04   5.3460000000000001E-03
atom   3.8227799999999998E+00   1.8305530000000021E+00   6.5531700000000006E+00 Mg   0.0000000000000000E+00   0.0000000000000000E+00  -1.0735000000000000E-02  -4.1040000000000000E-03  -1.2904000000000001E-02
atom   6.8327629999999999E+00   3.4845500000000023E+00   1.5115070000000004E+00 Mg   0.0000000000000000E+00   0.0000000000000000E+00   5.1919999999999996E-03  -1.6267000000000000E-02   6.6779999999999999E-03
atom   9.5832819999999987E+00   6.3410900000000303E-01   6.7927020000000011E+00 Mg   0.0000000000000000E+00   0.0000000000000000E+00  -1.8569999999999999E-03   5.7340000000000004E-03  -3.1840000000000002E-03
atom  -2.0536100000000038E-01   2.4046390000000022E+00   1.5519520000000009E+00 Mg   0.0000000000000000E+00   0.0000000000000000E+00  -7.1580000000000003E-03   4.7800000000000004E-03   9.6199999999999996E-04
atom   2.5790809999999977E+00   8.3550600000000252E-01   6.9476090000000026E+00 Mg   0.0000000000000000E+00   0.0000000000000000E+00   6.1339999999999997E-03   2.7880000000000001E-03  -6.9870000000000002E-03
atom   5.4129709999999962E+00   3.5858400000000019E+00   1.7301930000000016E+00 Mg   0.0000000000000000E+00   0.0000000000000000E+00   7.6569999999999997E-03  -6.9899999999999997E-03   5.9449999999999998E-03
atom   8.8330359999999999E+00   1.2197740000000028E+00   7.1572160000000000E+00 Mg   0.0000000000000000E+00   0.0000000000000000E+00  -1.0920000000000001E-03  -2.1819999999999999E-03  -1.3037999999999999E-02
atom  -2.3187900000000008E+00   8.4420530000000031E+00   2.6068480000000012E+00 Mg   0.0000000000000000E+00   0.0000000000000000E+00  -2.4849999999999998E-03   4.0900000000000002E-04  -1.6945999999999999E-02
atom   4.5061599999999824E-01   6.7188970000000046E+00   7.0214620000000032E+00 Mg   0.0000000000000000E+00   0.0000000000000000E+00   4.3319999999999999E-03  -6.8700000000000000E-04  -2.4589999999999998E-03
atom   3.7714599999999994E+00   7.8784250000000009E+00   1.5956760000000016E+00 Mg   0.0000000000000000E+00   0.0000000000000000E+00  -9.7269999999999995E-03   1.0926999999999999E-02   6.4250000000000002E-03
atom   6.4597389999999999E+00   6.9985960000000036E+00   6.7444860000000020E+00 Mg   0.0000000000000000E+00   0.0000000000000000E+00  -5.6300000000000002E-04  -7.9640000000000006E-03  -3.6900000000000001E-03
atom  -3.4463930000000014E+00   8.1659880000000040E+00   1.4691349999999999E+00 Mg   0.0000000000000000E+00   0.0000000000000000E+00   6.1570000000000001E-03   6.8030000000000000E-03   4.1549999999999998E-03
atom  -8.3300500000000244E-01   6.1059240000000017E+00   6.2467610000000029E+00 Mg   0.0000000000000000E+00   0.0000000000000000E+00   4.6839999999999998E-03   4.0499999999999998E-04   4.1960000000000001E-03
atom   3.0991129999999991E+00   8.5614500000000024E+00   2.1421870000000016E+00 Mg   0.0000000000000000E+00   0.0000000000000000E+00  -8.1200000000000005E-03   1.6930000000000001E-03  -6.9509999999999997E-03
atom   6.1069309999999968E+00   6.8303390000000048E+00   7.0512120000000031E+00 Mg   0.0000000000000000E+00   0.0000000000000000E+00  -5.5240000000000003E-03  -5.0520000000000001E-03   1.2509999999999999E-03
energy  -5.6171841000000001E+01
charge   0.0000000000000000E+00
end
begin
comment  i =     6600, time =     3300.000, E =       -55.8043667587
lattice   1.3734472999999999E+01   0.0000000000000000E+00   0.0000000000000000E+00
lattice  -6.8672370000000003E+00   1.1894403000000001E+01   0.0000000000000000E+00
lattice   0.0000000000000000E+00   0.0000000000000000E+00   1.1029213000000000E+01
atom  -3.1301939999999986E+00   8.1146739999999991E+00   7.4076619999999993E+00 Mg   0.0000000000000000E+00   0.0000000000000000E+00  -5.2280000000000000E-03   4.9719999999999999E-03  -2.0618000000000001E-02
atom   1.7189469999999993E+00   3.7762719999999996E+00   6.7204490000000003E+00 Mg   0.0000000000000000E+00   0.0000000000000000E+00   1.5214999999999999E-02   2.8980000000000000E-03  -1.0108000000000001E-02
atom   5.8944149999999977E+00   7.5087939999999991E+00   7.8732259999999989E+00 Mg   0.0000000000000000E+00   0.0000000000000000E+00  -1.0970000000000001E-03   6.2989999999999999E-03   3.4390000000000002E-03
atom   8.1071909999999985E+00   1.9282819999999998E+00   1.0904375000000000E+01 Mg   0.0000000000000000E+00   0.0000000000000000E+00  -9.7000000000000000E-05   3.0379999999999999E-03  -8.2930000000000000E-03
atom   9.7298729999999960E+00   4.4517899999999990E+00   4.8606360000000004E+00 Mg   0.0000000000000000E+00   0.0000000000000000E+00   1.0045000000000000E-02   2.7859999999999998E-03  -4.4190000000000002E-03
atom  -5.4681590000000035E+00   1.0086001999999999E+01   9.8421529999999962E+00 Mg   0.0000000000000000E+00   0.0000000000000000E+00   2.0079999999999998E-03  -2.8549999999999999E-03   5.5500000000000002E-03
atom   5.3111699999999518E-01   8.3770849999999975E+00   3.0412699999999998E-01 Mg   0.0000000000000000E+00   0.0000000000000000E+00  -1.1150999999999999E-02   1.7870000000000000E-03   1.0557000000000000E-02
atom   3.3123419999999943E+00   3.3219749999999992E+00   8.9275789999999997E+00 Mg   0.0000000000000000E+00   0.0000000000000000E+00   4.4310000000000000E-03   7.2579999999999997E-03   6.0619999999999997E-03
atom  -1.7729939999999993E+00   6.6842819999999978E+00   2.1614740000000001E+00 Mg   0.0000000000000000E+00   0.0000000000000000E+00  -1.9397999999999999E-02   3.6719999999999999E-03   1.0802000000000001E-02
atom   3.3019409999999989E+00   5.7304499999999994E+00   1.0997292999999999E+01 Mg   0.0000000000000000E+00   0.0000000000000000E+00   8.1849999999999996E-03   7.1009999999999997E-03   3.0560000000000001E-03
atom   4.2716559999999957E+00   5.7561929999999961E+00   4.9322399999999993E+00 Mg   0.0000000000000000E+00   0.0000000000000000E+00   2.3189999999999999E-03   2.6410000000000001E-03  -1.7799999999999999E-03
atom   1.6151719999999987E+00   1.0092975999999998E+01   4.1439409999999990E+00 Mg   0.0000000000000000E+00   0.0000000000000000E+00   1.1708000000000000E-02   1.1403999999999999E-02   1.2508999999999999E-02
atom  -3.0306700000000020E+00   5.3235899999999967E+00   2.9791539999999999E+00 Mg   0.0000000000000000E+00   0.0000000000000000E+00   6.0000000000000001E-03   9.8560000000000002E-03   3.1300000000000002E-04
atom  -2.5083520000000039E+00   7.7168539999999988E+00   5.4367059999999992E+00 Mg   0.0000000000000000E+00   0.0000000000000000E+00   6.5919999999999998E-03  -1.9106999999999999E-02  -3.3000000000000000E-03
atom   4.8058909999999972E+00   1.1747950999999999E+01   1.6746770000000000E+00 Mg   0.0000000000000000E+00   0.0000000000000000E+00  -3.2100000000000000E-04  -8.1880000000000008E-03   4.5680000000000000E-03
atom   3.7914409999999963E+00   5.3209559999999989E+00   3.7290960000000002E+00 Mg   0.0000000000000000E+00   0.0000000000000000E+00   9.9360000000000004E-03   8.2299999999999995E-04   4.9760000000000004E-03
atom   5.0818340000000006E+00   9.0783769999999961E+00   5.8606229999999995E+00 Mg   0.0000000000000000E+00   0.0000000000000000E+00   5.5610000000000000E-03  -6.1100000000000000E-03   4.2220000000000001E-03
atom   8.5326200000000032E+00   8.3029959999999985E+00   1.0802419999999988E+00 Mg   0.0000000000000000E+00   0.0000000000000000E+00  -1.0654000000000000E-02  -6.0999999999999997E-04   1.4905000000000000E-02
atom   8.3074339999999989E+00   4.6662079999999984E+00   2.3293460000000001E+00 Mg   0.0000000000000000E+00   0.0000000000000000E+00  -4.1700000000000001E-03   7.5799999999999999E-03  -3.5569999999999998E-03
atom  -4.3115669999999984E+00   7.7708109999999939E+00   8.3778660000000009E+00 Mg   0.0000000000000000E+00   0.0000000000000000E+00   6.6399999999999999E-04   3.3769999999999998E-03   1.5653000000000000E-02
atom   1.0503490000000000E+00   7.9221409999999972E+00   9.9791429999999988E+00 Mg   0.0000000000000000E+00   0.0000000000000000E+00   1.2600000000000001E-03   8.2539999999999992E-03   3.0249999999999999E-03
atom   1.2031029999999998E+00   2.5794649999999963E+00   9.7723379999999995E+00 Mg   0.0000000000000000E+00   0.0000000000000000E+00  -4.2649999999999997E-03  -1.5072000000000000E-02  -4.0790000000000002E-03
atom  -4.1482340000000040E+00   7.8027389999999945E+00   8.3579399999999993E+00 Mg   0.0000000000000000E+00   0.0000000000000000E+00   5.1659999999999996E-03   1.0300000000000000E-04  -2.0520000000000000E-03
atom   7.1094009999999983E+00   3.0184579999999968E+00   9.5266930000000016E+00 Mg   0.0000000000000000E+00   0.0000000000000000E+00  -5.7910000000000001E-03  -2.1649999999999998E-03   5.6210000000000001E-03
atom  -5.2720899999999504E-01   1.9765939999999953E+00   9.5788349999999998E+00 Mg   0.0000000000000000E+00   0.0000000000000000E+00   3.2079999999999999E-03  -1.0782999999999999E-02  -1.2593000000000000E-02
atom  -9.9355999999996572E-02   1.0789064999999997E+01   5.2100590000000002E+00 Mg   0.0000000000000000E+00   0.0000000000000000E+00   8.9519999999999999E-03   1.0833000000000001E-02  -1.7135999999999998E-02
atom   2.4403290000000033E+00   6.9184259999999966E+00   1.8965800000000015E+00 Mg   0.0000000000000000E+00   0.0000000000000000E+00   1.1119999999999999E-03  -3.1779999999999998E-03  -2.4970000000000001E-03
atom  -2.8355950000000010E+00   9.0630459999999964E+00   5.7940729999999991E+00 Mg   0.0000000000000000E+00   0.0000000000000000E+00   2.6199999999999999E-03   1.4599999999999999E-03  -1.0681000000000000E-02
atom   1.4695200000000006E+00   1.4188629999999967E+00   1.0640963000000001E+01 Mg   0.0000000000000000E+00   0.0000000000000000E+00  -2.0590000000000001E-03  -7.6010000000000001E-03   4.3999999999999999E-05
atom   1.0542289999999999E+01   3.5442039999999961E+00   2.6567029999999985E+00 Mg   0.0000000000000000E+00   0.0000000000000000E+00   7.9469999999999992E-03   6.1300000000000005E-04  -5.4770000000000001E-03
atom   8.2945299999999944E-01   1.0350037999999996E+01   6.2313600000000002E-01 Mg   0.0000000000000000E+00   0.0000000000000000E+00  -1.1800000000000000E-02   2.3389999999999999E-03   1.2576000000000000E-02
atom   6.2970419999999985E+00   4.7790029999999959E+00   1.0594058000000000E+01 Mg   0.0000000000000000E+00   0.0000000000000000E+00  -1.1235000000000000E-02  -1.0717000000000001E-02   1.1158000000000000E-02
atom  -4.9378770000000012E+00   1.0969383000000001E+01   2.4640499999999990E+00 Mg   0.0000000000000000E+00   0.0000000000000000E+00   2.4399999999999999E-04   6.4790000000000004E-03   4.9600000000000002E-04
atom   2.8704279999999960E+00   9.2200579999999999E+00   9.3323619999999963E+00 Mg   0.0000000000000000E+00   0.0000000000000000E+00   9.8539999999999999E-03  -8.8699999999999998E-04   1.4260999999999999E-02
atom   6.6972899999999971E+00   9.8354229999999987E+00   3.6794209999999983E+00 Mg   0.0000000000000000E+00   0.0000000000000000E+00  -8.9739999999999993E-03   6.6639999999999998E-03  -5.3940000000000004E-03
atom   5.2823999999996991E-02   5.3012370000000013E+00   6.5241419999999986E+00 Mg   0.0000000000000000E+00   0.0000000000000000E+00  -1.6171000000000001E-02  -3.4610000000000001E-03  -1.4109000000000000E-02
atom   3.1939569999999966E+00   3.5102600000000024E+00   5.1654939999999998E+00 Mg   0.0000000000000000E+00   0.0000000000000000E+00  -7.4050000000000001E-03   2.4020000000000001E-03   5.2529999999999999E-03
atom  -6.0639000000000056E+00   1.0975695000000000E+01   2.8838599999999748E-01 Mg   0.0000000000000000E+00   0.0000000000000000E+00  -3.5569999999999998E-03  -1.0623000000000000E-02  -6.7800000000000000E-04
atom  -1.0622930000000017E+00   8.0975449999999984E+00   1.0004295000000001E+01 Mg   0.0000000000000000E+00   0.0000000000000000E+00   3.9659999999999999E-03  -3.8539999999999998E-03   6.0720000000000001E-03
atom   2.8464469999999928E+00   4.4859839999999993E+00   3.5330389999999983E+00 Mg   0.0000000000000000E+00   0.0000000000000000E+00  -9.9299999999999996E-04  -3.7940000000000001E-03   5.4970000000000001E-03
atom   1.3809199999999966E-01   5.9483749999999995E+00   1.1001817000000001E+01 Mg   0.0000000000000000E+00   0.0000000000000000E+00   3.2539999999999999E-03   4.2600000000000000E-04   6.9820000000000004E-03
atom   1.1365444999999996E+01   6.4993899999999993E-01   4.4562930000000005E+00 Mg   0.0000000000000000E+00   0.0000000000000000E+00  -1.6429999999999999E-03   5.5360000000000001E-03   1.0250000000000001E-03
atom  -5.2867200000000081E-01   2.6949369999999964E+00   2.6009659999999957E+00 Mg   0.0000000000000000E+00   0.0000000000000000E+00   2.1229999999999999E-03  -4.8539999999999998E-03   8.6320000000000008E-03
atom  -2.2521780000000033E+00   1.0701621999999999E+01   4.0794409999999983E+00 Mg   0.0000000000000000E+00   0.0000000000000000E+00  -6.9639999999999997E-03   3.7780000000000001E-03  -7.9909999999999998E-03
atom   2.7454569999999991E+00   1.1872599999999998E+01   8.3842169999999996E+00 Mg   0.0000000000000000E+00   0.0000000000000000E+00   2.8130000000000000E-03   2.4710000000000001E-03   7.9810000000000002E-03
atom   8.1434159999999967E+00   3.4954189999999992E+00   8.5655289999999979E+00 Mg   0.0000000000000000E+00   0.0000000000000000E+00   4.2440000000000004E-03  -3.6600000000000001E-04   5.7479999999999996E-03
atom   2.4313379999999958E+00   4.9197229999999994E+00   3.7480650000000000E+00 Mg   0.0000000000000000E+00   0.0000000000000000E+00  -3.5550000000000000E-03  -5.7759999999999999E-03  -7.1960000000000001E-03
atom   9.0038999999999927E+00   2.2017569999999997E+00   5.8560999999999970E+00 Mg   0.0000000000000000E+00   0.0000000000000000E+00  -1.0116000000000000E-02  -6.7669999999999996E-03  -3.1630000000000000E-03
atom   4.4065900000000022E+00   1.0658888999999999E+01   5.7074749999999996E+00 Mg   0.0000000000000000E+00   0.0000000000000000E+00   6.7609999999999996E-03  -2.5030000000000000E-03  -4.7629999999999999E-03
atom   5.8976080000000026E+00   4.8604069999999950E+00   4.8935029999999990E+00 Mg   0.0000000000000000E+00   0.0000000000000000E+00  -8.9990000000000001E-03  -9.8410000000000008E-03  -8.5900000000000004E-03
atom   9.0792600000000001E-01   9.7716819999999984E+00   3.8573509999999973E+00 Mg   0.0000000000000000E+00   0.0000000000000000E+00  -1.1346000000000000E-02  -1.4220000000000001E-03  -1.6000000000000001E-04
atom   1.0697475000000001E+01   3.7768609999999989E+00   3.7089990000000004E+00 Mg   0.0000000000000000E+00   0.0000000000000000E+00  -6.2310000000000004E-03  -6.9490000000000003E-03  -1.8858000000000000E-02
atom   4.8542440000000013E+00   1.2300999999999991E+00   1.2305699999999840E-01 Mg   0.0000000000000000E+00   0.0000000000000000E+00  -7.3099999999999999E-04  -1.0980000000000000E-03  -2.4440000000000000E-03
atom  -1.8868400000000193E-01   3.7927219999999982E+00   7.8198729999999985E+00 Mg   0.0000000000000000E+00   0.0000000000000000E+00   1.0574000000000000E-02   6.1599999999999997E-03  -1.5360000000000000E-03
atom   9.0734649999999970E+00   1.6937469999999970E+00   6.6945290000000002E+00 Mg   0.0000000000000000E+00   0.0000000000000000E+00   5.7749999999999998E-03  -6.0899999999999999E-03   7.5259999999999997E-03
atom   6.0497049999999977E+00   6.3056079999999994E+00   8.0547219999999982E+00 Mg   0.0000000000000000E+00   0.0000000000000000E+00   2.1050000000000001E-03   3.1640000000000001E-03   2.2970000000000000E-03
atom  -8.1234499999999754E-01   1.6432959999999985E+00   1.3431409999999981E+00 Mg   0.0000000000000000E+00   0.0000000000000000E+00  -5.1170000000000000E-03   8.9140000000000000E-03  -9.6720000000000000E-03
atom  -4.8370009999999954E+00   1.1292483999999995E+01   1.1043669999999968E+00 Mg   0.0000000000000000E+00   0.0000000000000000E+00  -5.2310000000000004E-03  -1.4364000000000000E-02   7.6759999999999997E-03
atom   4.2621880000000010E+00   1.1694779999999976E+00   1.0339961000000001E+01 Mg   0.0000000000000000E+00   0.0000000000000000E+00   1.2022000000000000E-02  -9.6749999999999996E-03   5.6090000000000003E-03
atom  -5.7626500000000014E-01   9.6261979999999951E+00   4.0488169999999979E+00 Mg   0.0000000000000000E+00   0.0000000000000000E+00   6.5189999999999996E-03   5.2269999999999999E-03  -4.9919999999999999E-03
atom   8.4939380000000000E+00   4.2696229999999975E+00   8.4148659999999982E+00 Mg   0.0000000000000000E+00   0.0000000000000000E+00   5.3099999999999996E-03   2.8649999999999999E-03  -6.9080000000000001E-03
atom   4.8017669999999955E+00   6.2107399999999713E-01   3.0684379999999982E+00 Mg   0.0000000000000000E+00   0.0000000000000000E+00   1.4820000000000000E-03   1.2191000000000000E-02  -5.5199999999999997E-04
atom   4.6334509999999955E+00   8.1227089999999986E+00   7.0841169999999991E+00 Mg   0.0000000000000000E+00   0.0000000000000000E+00   3.1280000000000001E-03  -3.1830000000000001E-03  -5.2800000000000000E-03
atom  -3.2361080000000046E+00   8.4870019999999968E+00   8.0419719999999995E+00 Mg   0.0000000000000000E+00   0.0000000000000000E+00  -8.8050000000000003E-03   1.6521000000000001E-02  -5.2139999999999999E-03
energy  -5.5804366999999999E+01
charge   0.0000000000000000E+00
end
begin
comment  i =     1150, time =      575.000, E =       -55.8829147985
lattice   1.3489195000000000E+01   0.0000000000000000E+00   0.0000000000000000E+00
lattice  -6.7445979999999999E+00   1.1681986000000000E+01   0.0000000000000000E+00
lattice   0.0000000000000000E+00   0.0000000000000000E+00   1.0832247000000001E+01
atom  -1.8728499999999999E+00   5.7590750000000002E+00   4.6047149999999997E+00 Mg   0.0000000000000000E+00   0.0000000000000000E+00  -4.4500000000000000E-03  -1.8447999999999999E-02   2.9550000000000002E-03
atom  -4.1028400000000004E-01   1.4351330000000000E+00   9.3934429999999995E+00 Mg   0.0000000000000000E+00   0.0000000000000000E+00   6.3540000000000003E-03   3.0400000000000002E-04  -1.0851000000000000E-02
atom   3.4245819999999996E+00   3.7860770000000001E+00   3.8052130000000002E+00 Mg   0.0000000000000000E+00   0.0000000000000000E+00  -3.3510999999999999E-02  -2.1371999999999999E-02  -1.3740000000000000E-03
atom   7.2123490000000006E+00   5.1228309999999997E+00   6.4056140000000008E+00 Mg   0.0000000000000000E+00   0.0000000000000000E+00   3.5727000000000002E-02   5.8659999999999997E-03   1.2945000000000000E-02
atom   1.2284500000000115E-01   3.3744350000000001E+00   4.2475969999999998E+00 Mg   0.0000000000000000E+00   0.0000000000000000E+00  -2.9092000000000000E-02  -1.4000000000000000E-05  -3.2460000000000002E-03
atom   6.9092500000000034E-01   4.5657079999999999E+00   9.6198680000000003E+00 Mg   0.0000000000000000E+00   0.0000000000000000E+00   3.5520000000000000E-03  -3.8449999999999999E-03  -3.4589999999999998E-03
atom   3.3013440000000003E+00   5.4735709999999997E+00   6.5209600000000001E-01 Mg   0.0000000000000000E+00   0.0000000000000000E+00   1.4940000000000000E-02  -4.0190000000000000E-03   6.6020000000000002E-03
atom   4.7224650000000015E+00   1.8464860000000001E+00   5.6354850000000001E+00 Mg   0.0000000000000000E+00   0.0000000000000000E+00   1.9476000000000000E-02   3.8630000000000001E-03  -3.6909999999999998E-03
atom  -8.5904799999999970E-01   1.0561245000000000E+01   2.7700440000000004E+00 Mg   0.0000000000000000E+00   0.0000000000000000E+00  -9.2699999999999998E-04   8.3669999999999994E-03  -7.2069999999999999E-03
atom   2.3875759999999997E+00   7.2023260000000002E+00   8.5459610000000001E+00 Mg   0.0000000000000000E+00   0.0000000000000000E+00  -1.2760000000000000E-03   5.9280000000000001E-03  -5.3280000000000003E-03