begin
comment  i =     1790, time =      895.000, E =       -56.2163728989
lattice   1.3065398000000000E+01   0.0000000000000000E+00   0.0000000000000000E+00
lattice  -6.5326990000000000E+00   1.1314966000000000E+01   0.0000000000000000E+00
lattice   0.0000000000000000E+00   0.0000000000000000E+00   1.0491923999999999E+01
atom  -1.1527300000000019E-01   3.7630929999999996E+00   2.1442180000000000E+00 Mg   0.0000000000000000E+00   0.0000000000000000E+00   1.6040000000000000E-03  -3.3980000000000000E-03   6.6649999999999999E-03
atom   2.8267060000000002E+00   1.7821319999999998E+00   7.5157790000000011E+00 Mg   0.0000000000000000E+00   0.0000000000000000E+00  -7.1419999999999999E-03  -4.2499999999999998E-04   1.1739999999999999E-03
atom   6.4759289999999998E+00   3.7734769999999993E+00   3.0341700000000000E+00 Mg   0.0000000000000000E+00   0.0000000000000000E+00   1.1570000000000000E-03   3.0190000000000000E-03  -4.2820000000000002E-03
atom   8.4069489999999991E+00   8.4254399999999985E-01   7.6779349999999997E+00 Mg   0.0000000000000000E+00   0.0000000000000000E+00   3.1549999999999998E-03   5.7099999999999998E-03  -1.2999999999999999E-03
atom  -5.4439200000000132E-01   3.5121509999999989E+00   1.8911690000000001E+00 Mg   0.0000000000000000E+00   0.0000000000000000E+00  -6.2090000000000001E-03   4.9899999999999999E-04   5.0530000000000002E-03
atom   2.4595909999999996E+00   1.6830219999999998E+00   7.3648809999999996E+00 Mg   0.0000000000000000E+00   0.0000000000000000E+00  -2.0799999999999999E-04   3.1830000000000001E-03   1.3430000000000000E-03
atom   5.0422479999999981E+00   3.3535359999999992E+00   2.3585039999999999E+00 Mg   0.0000000000000000E+00   0.0000000000000000E+00   6.5919999999999998E-03   3.3990000000000001E-03   1.5070000000000001E-03
atom   8.2798390000000008E+00   2.2589649999999994E+00   7.0706700000000007E+00 Mg   0.0000000000000000E+00   0.0000000000000000E+00   3.6510000000000002E-03  -4.2760000000000003E-03   3.7330000000000002E-03
atom  -3.4772369999999997E+00   8.5217249999999982E+00   2.1596950000000001E+00 Mg   0.0000000000000000E+00   0.0000000000000000E+00   1.5920000000000001E-03   1.9849999999999998E-03   5.6410000000000002E-03
atom  -6.0587799999999947E-01   7.4437389999999990E+00   7.4968640000000004E+00 Mg   0.0000000000000000E+00   0.0000000000000000E+00   7.5589999999999997E-03  -2.2629999999999998E-03  -3.3440000000000002E-03
atom   2.9191229999999999E+00   9.1524819999999991E+00   2.5789469999999999E+00 Mg   0.0000000000000000E+00   0.0000000000000000E+00   2.1840000000000002E-03  -7.6330000000000000E-03   4.1430000000000000E-03
atom   5.2668350000000004E+00   7.0744829999999990E+00   7.9575670000000009E+00 Mg   0.0000000000000000E+00   0.0000000000000000E+00   4.9880000000000002E-03   1.2210000000000001E-03  -3.4380000000000001E-03
atom  -3.6737190000000024E+00   9.4243310000000005E+00   2.4079030000000001E+00 Mg   0.0000000000000000E+00   0.0000000000000000E+00   5.9199999999999997E-04  -1.1253000000000001E-02  -3.7620000000000002E-03
atom  -8.4249199999999980E-01   6.3185299999999991E+00   6.9711679999999996E+00 Mg   0.0000000000000000E+00   0.0000000000000000E+00  -3.6519999999999999E-03   6.2440000000000004E-03  -3.5750000000000001E-03
atom   2.3667579999999990E+00   8.9183039999999973E+00   2.3493189999999999E+00 Mg   0.0000000000000000E+00   0.0000000000000000E+00  -5.0889999999999998E-03  -1.9580000000000001E-03   2.2499999999999999E-04
atom   5.3733039999999983E+00   7.6783789999999978E+00   7.7150370000000006E+00 Mg   0.0000000000000000E+00   0.0000000000000000E+00  -3.0100000000000000E-04  -7.7629999999999999E-03  -8.0829999999999999E-03
atom   1.3718100000000058E-01   2.6590059999999975E+00   2.1189760000000000E+00 Mg   0.0000000000000000E+00   0.0000000000000000E+00   6.6220000000000003E-03   4.8640000000000003E-03   1.3060000000000001E-03
atom   3.4994850000000000E+00   1.1227379999999971E+00   8.0620580000000004E+00 Mg   0.0000000000000000E+00   0.0000000000000000E+00  -6.4330000000000003E-03   9.7470000000000005E-03  -2.9599999999999998E-04
atom   5.7062960000000009E+00   2.1402699999999975E+00   3.1180360000000005E+00 Mg   0.0000000000000000E+00   0.0000000000000000E+00   7.5249999999999996E-03   1.1080000000000000E-02  -5.3109999999999997E-03
atom   9.5480140000000002E+00   1.3916789999999972E+00   7.3058699999999996E+00 Mg   0.0000000000000000E+00   0.0000000000000000E+00   1.0180000000000000E-03  -1.4270000000000001E-03   9.1620000000000000E-03
atom  -2.9099000000002057E-02   3.1838539999999989E+00   2.7911700000000002E+00 Mg   0.0000000000000000E+00   0.0000000000000000E+00   2.2499999999999999E-04  -4.3899999999999999E-04  -1.0989000000000001E-02
atom   2.4103569999999985E+00   2.5311999999999840E-01   7.2703080000000009E+00 Mg   0.0000000000000000E+00   0.0000000000000000E+00   4.7159999999999997E-03   1.0548000000000000E-02   9.7319999999999993E-03
atom   6.2064480000000017E+00   3.4763079999999964E+00   2.5851739999999999E+00 Mg   0.0000000000000000E+00   0.0000000000000000E+00  -6.0250000000000000E-03  -6.6130000000000000E-03  -6.2150000000000000E-03
atom   8.7884369999999965E+00   9.6986299999999903E-01   7.1789769999999997E+00 Mg   0.0000000000000000E+00   0.0000000000000000E+00  -2.2139999999999998E-03  -1.5460000000000001E-03   7.8700000000000005E-04
atom  -2.1313579999999992E+00   8.7103729999999970E+00   2.6190980000000001E+00 Mg   0.0000000000000000E+00   0.0000000000000000E+00  -4.8570000000000002E-03   1.9849999999999998E-03  -7.0010000000000003E-03
atom  -6.9528399999999968E-01   6.2624129999999978E+00   7.2667870000000008E+00 Mg   0.0000000000000000E+00   0.0000000000000000E+00   1.6840999999999998E-02  -5.3810000000000004E-03   9.0290000000000006E-03
atom   3.6976339999999994E+00   8.2963269999999962E+00   2.6888720000000004E+00 Mg   0.0000000000000000E+00   0.0000000000000000E+00  -2.1789999999999999E-03  -5.5279999999999999E-03  -4.1349999999999998E-03
atom   7.1040119999999991E+00   6.7608489999999977E+00   7.5590970000000013E+00 Mg   0.0000000000000000E+00   0.0000000000000000E+00  -8.1840000000000003E-03  -7.8919999999999997E-03   2.6289999999999998E-03
atom  -3.4606010000000005E+00   8.3251679999999979E+00   2.3155500000000000E+00 Mg   0.0000000000000000E+00   0.0000000000000000E+00   2.0750000000000000E-03  -6.6969999999999998E-03   5.2499999999999997E-04
atom  -2.4406900000000054E-01   6.4564959999999969E+00   6.9973950000000009E+00 Mg   0.0000000000000000E+00   0.0000000000000000E+00   3.1289999999999998E-03   5.9199999999999999E-03   1.4815999999999999E-02
atom   3.1461270000000008E+00   8.5348579999999981E+00   2.1310199999999999E+00 Mg   0.0000000000000000E+00   0.0000000000000000E+00  -6.3290000000000004E-03   5.4199999999999995E-04   5.5160000000000001E-03
atom   5.6598929999999985E+00   6.3066959999999987E+00   7.2833330000000007E+00 Mg   0.0000000000000000E+00   0.0000000000000000E+00  -1.3037000000000000E-02   5.5719999999999997E-03   8.4869999999999998E-03
atom  -1.1286800000000000E-01   3.5981619999999994E+00   1.7077110000000033E+00 Mg   0.0000000000000000E+00   0.0000000000000000E+00  -4.7219999999999996E-03  -8.9999999999999998E-04  -4.7829999999999999E-03
atom   2.8788090000000000E+00   2.0827290000000001E+00   6.7621650000000013E+00 Mg   0.0000000000000000E+00   0.0000000000000000E+00   2.5990000000000002E-03  -4.4539999999999996E-03   9.8469999999999999E-03
atom   5.5965559999999996E+00   3.9702009999999994E+00   2.1692080000000007E+00 Mg   0.0000000000000000E+00   0.0000000000000000E+00   7.7010000000000004E-03  -6.1609999999999998E-03  -4.1660000000000004E-03
atom   9.2435080000000003E+00   1.9059269999999997E+00   6.5181290000000018E+00 Mg   0.0000000000000000E+00   0.0000000000000000E+00  -2.3400000000000000E-04   1.8180000000000000E-03   3.2669999999999999E-03
atom  -1.3878160000000015E+00   3.3492569999999993E+00   1.2493779999999997E+00 Mg   0.0000000000000000E+00   0.0000000000000000E+00   7.5649999999999997E-03   1.2769999999999999E-03   4.4380000000000001E-03
atom   2.5630900000000021E+00   1.5565519999999997E+00   6.6559810000000041E+00 Mg   0.0000000000000000E+00   0.0000000000000000E+00  -1.0950000000000001E-03   8.2330000000000007E-03   1.9700000000000000E-03
atom   5.3499239999999988E+00   4.1984360000000001E+00   2.0773920000000019E+00 Mg   0.0000000000000000E+00   0.0000000000000000E+00   3.6200000000000002E-04  -1.1920000000000000E-02  -9.7500000000000000E-03
atom   8.4279430000000009E+00   1.4365569999999996E+00   6.2724670000000007E+00 Mg   0.0000000000000000E+00   0.0000000000000000E+00   1.0549999999999999E-03   4.0439999999999999E-03   8.5869999999999991E-03
atom  -3.2103519999999999E+00   9.1192139999999977E+00   2.3842920000000003E+00 Mg   0.0000000000000000E+00   0.0000000000000000E+00  -1.6100000000000001E-03   3.5500000000000002E-03  -1.2999999999999999E-05
atom  -2.8937000000000299E-02   6.9390369999999990E+00   6.9209760000000013E+00 Mg   0.0000000000000000E+00   0.0000000000000000E+00  -5.6680000000000003E-03   6.2389999999999998E-03   1.7489999999999999E-03
atom   2.6930539999999996E+00   8.7667339999999978E+00   2.5973160000000028E+00 Mg   0.0000000000000000E+00   0.0000000000000000E+00   6.5760000000000002E-03   5.6270000000000001E-03  -8.4919999999999995E-03
atom   6.4610489999999992E+00   6.8923469999999991E+00   7.1153090000000025E+00 Mg   0.0000000000000000E+00   0.0000000000000000E+00  -1.6410000000000001E-03   4.3179999999999998E-03   3.8330000000000000E-03
atom  -3.4987169999999979E+00   8.7340259999999983E+00   1.7463700000000006E+00 Mg   0.0000000000000000E+00   0.0000000000000000E+00  -3.1250000000000002E-03  -7.3280000000000003E-03  -2.4529999999999999E-03
atom  -7.3937300000000161E-01   6.9737859999999987E+00   6.5398640000000015E+00 Mg   0.0000000000000000E+00   0.0000000000000000E+00   3.4229999999999998E-03  -2.7750000000000001E-03  -1.7500000000000000E-03
atom   2.1492350000000005E+00   8.8648329999999991E+00   1.5320980000000028E+00 Mg   0.0000000000000000E+00   0.0000000000000000E+00  -2.3579999999999999E-03   3.8760000000000001E-03   4.7250000000000000E-03
atom   5.2190369999999975E+00   6.7930459999999995E+00   6.8538180000000022E+00 Mg   0.0000000000000000E+00   0.0000000000000000E+00   2.4499999999999999E-03   5.3689999999999996E-03   4.6860000000000001E-03
atom   4.5113200000000114E-01   3.4784719999999973E+00   2.0374600000000007E+00 Mg   0.0000000000000000E+00   0.0000000000000000E+00   8.6230000000000005E-03  -1.2340000000000001E-03  -8.0420000000000005E-03
atom   4.0800740000000006E+00   1.9082749999999979E+00   6.8304050000000016E+00 Mg   0.0000000000000000E+00   0.0000000000000000E+00  -7.0850000000000002E-03  -5.0390000000000001E-03   6.6629999999999997E-03
atom   6.9808949999999994E+00   2.7270659999999998E+00   2.2302589999999998E+00 Mg   0.0000000000000000E+00   0.0000000000000000E+00   4.5290000000000000E-03   9.7750000000000007E-03  -7.6309999999999998E-03
atom   1.0422513000000000E+01   1.0793779999999984E+00   7.4962920000000040E+00 Mg   0.0000000000000000E+00   0.0000000000000000E+00  -6.6559999999999996E-03  -1.9870000000000001E-03  -4.2230000000000002E-03
atom   4.8724000000000145E-01   2.1815589999999974E+00   2.1803250000000021E+00 Mg   0.0000000000000000E+00   0.0000000000000000E+00  -1.2447000000000000E-02   9.3030000000000005E-03  -9.8910000000000005E-03
atom   3.2652240000000008E+00   6.5245399999999787E-01   6.7192540000000012E+00 Mg   0.0000000000000000E+00   0.0000000000000000E+00   5.0169999999999998E-03   1.0206000000000000E-02   4.0549999999999996E-03
atom   6.4279979999999997E+00   3.1335039999999976E+00   1.6451840000000013E+00 Mg   0.0000000000000000E+00   0.0000000000000000E+00  -8.6330000000000000E-03  -1.3950000000000000E-03  -2.6809999999999998E-03
atom   9.3597489999999990E+00   1.3677879999999973E+00   6.2240540000000015E+00 Mg   0.0000000000000000E+00   0.0000000000000000E+00  -2.6289999999999998E-03  -5.6639999999999998E-03   1.0976000000000000E-02
atom  -2.7903299999999991E+00   8.5956769999999967E+00   2.4346570000000018E+00 Mg   0.0000000000000000E+00   0.0000000000000000E+00  -1.9100000000000001E-04  -1.3519999999999999E-03  -1.2789999999999999E-02
atom   5.0191100000000066E-01   6.9782369999999956E+00   7.0354750000000008E+00 Mg   0.0000000000000000E+00   0.0000000000000000E+00   2.0290000000000000E-03  -3.9940000000000002E-03   2.9550000000000002E-03
atom   3.8676370000000002E+00   8.1738029999999995E+00   2.0195009999999995E+00 Mg   0.0000000000000000E+00   0.0000000000000000E+00  -3.7620000000000002E-03  -4.6610000000000002E-03  -5.3590000000000000E-03
atom   6.7999209999999994E+00   7.1607819999999975E+00   6.6834390000000026E+00 Mg   0.0000000000000000E+00   0.0000000000000000E+00  -4.9230000000000003E-03  -1.1877000000000000E-02   8.1460000000000005E-03
atom  -2.8512819999999990E+00   8.4985109999999953E+00   2.0504469999999997E+00 Mg   0.0000000000000000E+00   0.0000000000000000E+00  -1.0862999999999999E-02  -2.5669999999999998E-03  -1.2907000000000000E-02
atom  -4.7855000000000131E-01   6.1315249999999981E+00   6.8223579999999995E+00 Mg   0.0000000000000000E+00   0.0000000000000000E+00   5.8349999999999999E-03   1.9330000000000000E-03   6.3140000000000002E-03
atom   2.4045789999999987E+00   7.8443709999999980E+00   2.0815740000000029E+00 Mg   0.0000000000000000E+00   0.0000000000000000E+00   1.4841999999999999E-02   7.2300000000000001E-04  -1.3285999999999999E-02
atom   5.9594009999999997E+00   6.7079189999999969E+00   7.1396060000000041E+00 Mg   0.0000000000000000E+00   0.0000000000000000E+00   1.6710000000000000E-03  -4.0130000000000001E-03  -3.7360000000000002E-03
energy  -5.6216372999999997E+01
charge   0.0000000000000000E+00
end
begin
comment  i =    14020, time =     7010.000, E =       -56.3672125690
lattice   1.2830911000000000E+01   0.0000000000000000E+00   0.0000000000000000E+00
lattice  -6.4154559999999998E+00   1.1111895000000001E+01   0.0000000000000000E+00
lattice   0.0000000000000000E+00   0.0000000000000000E+00   1.0303623999999999E+01
atom   1.2621600000000047E-01   3.4813480000000001E+00   2.5357880000000002E+00 Mg   0.0000000000000000E+00   0.0000000000000000E+00  -4.8199999999999996E-03   1.7220000000000000E-03  -1.1659999999999999E-03
atom   3.0235040000000009E+00   1.8790060000000002E+00   7.4249119999999991E+00 Mg   0.0000000000000000E+00   0.0000000000000000E+00   1.0000000000000000E-03  -4.5529999999999998E-03   1.1039999999999999E-03
atom   6.0550730000000028E+00   3.5629740000000001E+00   2.7332030000000000E+00 Mg   0.0000000000000000E+00   0.0000000000000000E+00   1.5650000000000000E-03  -1.2630000000000000E-03  -4.7359999999999998E-03
atom   9.1041250000000016E+00   1.6190629999999999E+00   7.3653490000000001E+00 Mg   0.0000000000000000E+00   0.0000000000000000E+00  -1.5050000000000000E-03   9.5000000000000000E-04  -8.1400000000000005E-04
atom  -7.5414399999999870E-01   3.3726440000000006E+00   2.4113050000000000E+00 Mg   0.0000000000000000E+00   0.0000000000000000E+00   1.2979999999999999E-03   8.4199999999999998E-04   2.2699999999999999E-04
atom   2.2719940000000007E+00   1.5306760000000001E+00   7.4407139999999998E+00 Mg   0.0000000000000000E+00   0.0000000000000000E+00   1.4540000000000000E-03   4.0410000000000003E-03  -4.2079999999999999E-03
atom   5.2771580000000045E+00   3.5440840000000002E+00   2.4736880000000001E+00 Mg   0.0000000000000000E+00   0.0000000000000000E+00   4.8999999999999998E-04  -2.0699999999999999E-04  -2.3779999999999999E-03
atom   8.4214050000000054E+00   1.6531410000000000E+00   7.1536109999999997E+00 Mg   0.0000000000000000E+00   0.0000000000000000E+00  -1.4109999999999999E-03   2.6300000000000000E-03   2.2820000000000002E-03
atom  -3.0227830000000004E+00   8.8241270000000007E+00   2.4254730000000002E+00 Mg   0.0000000000000000E+00   0.0000000000000000E+00   1.2019999999999999E-03  -2.7560000000000002E-03   4.7699999999999999E-04
atom   1.5045400000000075E-01   6.8915990000000011E+00   7.3364289999999999E+00 Mg   0.0000000000000000E+00   0.0000000000000000E+00  -2.3990000000000001E-03   4.1630000000000000E-03   3.5300000000000002E-04
atom   3.1136090000000003E+00   8.7506880000000002E+00   2.4517220000000002E+00 Mg   0.0000000000000000E+00   0.0000000000000000E+00   1.0319999999999999E-03   5.1500000000000005E-04   2.7999999999999998E-04
atom   6.2521440000000021E+00   7.0106750000000000E+00   7.4325859999999997E+00 Mg   0.0000000000000000E+00   0.0000000000000000E+00  -6.6100000000000002E-04   6.7800000000000000E-04  -2.0030000000000000E-03
atom  -3.5993009999999992E+00   8.6782529999999998E+00   2.4000789999999999E+00 Mg   0.0000000000000000E+00   0.0000000000000000E+00  -6.1799999999999995E-04   1.2840000000000000E-03   8.7999999999999998E-05
atom  -5.5892399999999676E-01   6.8923490000000003E+00   7.2183110000000008E+00 Mg   0.0000000000000000E+00   0.0000000000000000E+00   4.5899999999999999E-04   5.0199999999999995E-04   1.2400000000000001E-04
atom   2.3755880000000027E+00   8.8670310000000008E+00   2.3087849999999999E+00 Mg   0.0000000000000000E+00   0.0000000000000000E+00  -1.3540000000000000E-03  -2.3809999999999999E-03   1.8320000000000001E-03
atom   5.5022860000000042E+00   6.9434940000000003E+00   7.1366600000000000E+00 Mg   0.0000000000000000E+00   0.0000000000000000E+00  -8.3500000000000002E-04   1.0230000000000000E-03   3.4229999999999998E-03
atom   4.3822099999999992E-01   2.8770919999999989E+00   2.4626730000000001E+00 Mg   0.0000000000000000E+00   0.0000000000000000E+00  -2.3289999999999999E-03  -4.8400000000000000E-04  -3.6600000000000001E-04
atom   3.3579779999999997E+00   1.1920240000000009E+00   7.4227140000000000E+00 Mg   0.0000000000000000E+00   0.0000000000000000E+00   2.7230000000000002E-03  -1.5260000000000000E-03  -6.7199999999999996E-04
atom   6.4836020000000012E+00   2.7097950000000002E+00   2.5230980000000001E+00 Mg   0.0000000000000000E+00   0.0000000000000000E+00   1.5230000000000000E-03   2.3019999999999998E-03   1.3230000000000000E-03
atom   9.6037430000000015E+00   1.0754319999999993E+00   7.3272770000000005E+00 Mg   0.0000000000000000E+00   0.0000000000000000E+00  -1.6659999999999999E-03   1.1529999999999999E-03  -1.1400000000000000E-03
atom  -1.3155899999999957E-01   2.8604680000000000E+00   2.2765309999999999E+00 Mg   0.0000000000000000E+00   0.0000000000000000E+00  -3.5070000000000001E-03  -2.0720000000000001E-03   2.5000000000000001E-03
atom   2.8629760000000029E+00   1.1963190000000004E+00   7.2518600000000006E+00 Mg   0.0000000000000000E+00   0.0000000000000000E+00  -1.9350000000000001E-03  -2.6440000000000001E-03  -5.5400000000000002E-04
atom   5.8002370000000036E+00   2.9916869999999980E+00   2.3127409999999999E+00 Mg   0.0000000000000000E+00   0.0000000000000000E+00  -3.5399999999999999E-04  -1.2819999999999999E-03   1.4959999999999999E-03
atom   8.7561650000000064E+00   1.2197639999999994E+00   7.2664989999999996E+00 Mg   0.0000000000000000E+00   0.0000000000000000E+00   2.6300000000000000E-04  -2.6519999999999998E-03  -5.2300000000000003E-04
atom  -2.6629420000000006E+00   8.2155059999999978E+00   2.3844240000000001E+00 Mg   0.0000000000000000E+00   0.0000000000000000E+00   3.7599999999999998E-04  -1.9910000000000001E-03   2.9069999999999999E-03
atom   2.4551299999999929E-01   6.2893510000000008E+00   7.3228039999999996E+00 Mg   0.0000000000000000E+00   0.0000000000000000E+00  -1.6699999999999999E-04   3.2650000000000001E-03   1.7550000000000000E-03
atom   3.2964250000000002E+00   7.9167859999999983E+00   2.5922639999999997E+00 Mg   0.0000000000000000E+00   0.0000000000000000E+00   1.9220000000000001E-03   3.5710000000000000E-03  -1.0399999999999999E-04
atom   6.3954500000000012E+00   6.4515630000000002E+00   7.3975489999999997E+00 Mg   0.0000000000000000E+00   0.0000000000000000E+00   5.7700000000000004E-04  -3.9179999999999996E-03  -2.3500000000000001E-03
atom  -3.2460089999999981E+00   8.0738070000000004E+00   2.4249410000000000E+00 Mg   0.0000000000000000E+00   0.0000000000000000E+00  -2.8389999999999999E-03   5.7700000000000004E-04   1.1340000000000000E-03
atom  -2.6878299999999722E-01   6.3632409999999977E+00   7.1056359999999996E+00 Mg   0.0000000000000000E+00   0.0000000000000000E+00  -1.4070000000000000E-03  -9.4600000000000001E-04   2.0339999999999998E-03
atom   2.6606240000000025E+00   8.1367680000000018E+00   2.2218659999999999E+00 Mg   0.0000000000000000E+00   0.0000000000000000E+00   1.2430000000000000E-03   1.9520000000000000E-03   1.4260000000000000E-03
atom   5.6518180000000031E+00   6.4000420000000000E+00   7.1121129999999999E+00 Mg   0.0000000000000000E+00   0.0000000000000000E+00   1.9480000000000001E-03   1.2890000000000000E-03   2.4989999999999999E-03
atom  -1.1850899999999992E-01   3.5479100000000003E+00   1.9863869999999999E+00 Mg   0.0000000000000000E+00   0.0000000000000000E+00   4.9899999999999999E-04   6.7699999999999998E-04  -1.0809999999999999E-03
atom   2.7972070000000007E+00   1.6371180000000001E+00   6.9291870000000033E+00 Mg   0.0000000000000000E+00   0.0000000000000000E+00   3.3830000000000002E-03   3.3189999999999999E-03  -4.2529999999999998E-03
atom   6.0364800000000018E+00   3.4986679999999999E+00   1.8846500000000004E+00 Mg   0.0000000000000000E+00   0.0000000000000000E+00  -1.6689999999999999E-03  -1.3389999999999999E-03   3.8579999999999999E-03
atom   8.9295430000000007E+00   1.5833759999999999E+00   6.9579119999999994E+00 Mg   0.0000000000000000E+00   0.0000000000000000E+00  -3.1300000000000002E-04   3.3130000000000000E-03  -2.6380000000000002E-03
atom  -9.3496699999999733E-01   3.3796279999999999E+00   1.8470520000000006E+00 Mg   0.0000000000000000E+00   0.0000000000000000E+00   3.3560000000000000E-03   2.9710000000000001E-03   1.9300000000000001E-03
atom   2.2823430000000040E+00   1.7617900000000000E+00   6.5970550000000019E+00 Mg   0.0000000000000000E+00   0.0000000000000000E+00  -2.0309999999999998E-03   4.3399999999999998E-04   3.2460000000000002E-03
atom   5.1655200000000034E+00   3.5612320000000000E+00   1.7995900000000002E+00 Mg   0.0000000000000000E+00   0.0000000000000000E+00   2.1860000000000000E-03   1.3309999999999999E-03  -4.9500000000000000E-04
atom   8.1487610000000057E+00   1.8147920000000002E+00   6.7032839999999991E+00 Mg   0.0000000000000000E+00   0.0000000000000000E+00   2.1220000000000002E-03   2.9999999999999997E-04   5.1599999999999997E-04
atom  -2.8635180000000000E+00   8.8829440000000002E+00   1.8964540000000005E+00 Mg   0.0000000000000000E+00   0.0000000000000000E+00  -1.1360000000000001E-03  -1.8779999999999999E-03  -5.2700000000000002E-04
atom  -7.7179999999994007E-03   6.9486220000000003E+00   6.8690099999999994E+00 Mg   0.0000000000000000E+00   0.0000000000000000E+00  -1.0850000000000000E-03   1.1640000000000001E-03  -1.9550000000000001E-03
atom   3.0392590000000004E+00   8.7465989999999998E+00   1.8990510000000003E+00 Mg   0.0000000000000000E+00   0.0000000000000000E+00   6.3299999999999999E-04   7.6800000000000002E-04   3.4999999999999997E-05
atom   6.0207310000000014E+00   6.9757369999999996E+00   6.7287570000000008E+00 Mg   0.0000000000000000E+00   0.0000000000000000E+00   6.2600000000000004E-04  -1.7179999999999999E-03   7.6099999999999996E-04
atom  -3.7188539999999999E+00   8.7742550000000001E+00   1.8203799999999997E+00 Mg   0.0000000000000000E+00   0.0000000000000000E+00   2.0460000000000001E-03   9.1399999999999999E-04   4.6600000000000000E-04
atom  -7.1389899999999729E-01   6.9751920000000007E+00   6.5964689999999990E+00 Mg   0.0000000000000000E+00   0.0000000000000000E+00   5.4000000000000001E-04  -1.6180000000000001E-03   7.6000000000000004E-05
atom   2.5070740000000007E+00   8.8237570000000005E+00   1.6445280000000002E+00 Mg   0.0000000000000000E+00   0.0000000000000000E+00  -3.3969999999999998E-03  -6.8000000000000005E-04   2.7659999999999998E-03
atom   5.3128750000000027E+00   7.0585740000000001E+00   6.6909820000000009E+00 Mg   0.0000000000000000E+00   0.0000000000000000E+00   1.6799999999999999E-04  -7.1000000000000005E-05  -9.2599999999999996E-04
atom   3.7304499999999990E-01   2.9445819999999978E+00   1.9733120000000008E+00 Mg   0.0000000000000000E+00   0.0000000000000000E+00  -1.8900000000000001E-04  -1.1600000000000000E-04  -1.4540000000000000E-03
atom   3.2676890000000003E+00   1.1870369999999999E+00   6.7482110000000013E+00 Mg   0.0000000000000000E+00   0.0000000000000000E+00   2.1480000000000002E-03  -4.8600000000000000E-04   2.1499999999999999E-04
atom   6.5393830000000017E+00   3.1173629999999983E+00   1.9306670000000024E+00 Mg   0.0000000000000000E+00   0.0000000000000000E+00  -1.3940000000000001E-03  -3.9430000000000003E-03   1.1900000000000001E-03
atom   9.3663480000000003E+00   1.0945790000000002E+00   6.6822289999999995E+00 Mg   0.0000000000000000E+00   0.0000000000000000E+00   8.3699999999999996E-04   6.5799999999999995E-04   4.4900000000000002E-04
atom  -2.9811799999999838E-01   3.0185400000000011E+00   1.7578890000000011E+00 Mg   0.0000000000000000E+00   0.0000000000000000E+00   3.9300000000000001E-04  -1.6119999999999999E-03   9.4200000000000002E-04
atom   2.6235310000000034E+00   1.0601549999999995E+00   6.6232310000000005E+00 Mg   0.0000000000000000E+00   0.0000000000000000E+00  -1.5000000000000000E-05   2.2900000000000001E-04   6.2000000000000003E-05
atom   5.7331180000000037E+00   3.0178520000000009E+00   1.7945480000000007E+00 Mg   0.0000000000000000E+00   0.0000000000000000E+00  -5.9199999999999997E-04  -1.5200000000000001E-03   1.1730000000000000E-03
atom   8.5602030000000031E+00   1.1817549999999988E+00   6.7431750000000017E+00 Mg   0.0000000000000000E+00   0.0000000000000000E+00   2.5420000000000000E-03  -9.4100000000000000E-04  -3.2710000000000000E-03
atom  -2.7493460000000005E+00   8.1569739999999982E+00   1.9150510000000012E+00 Mg   0.0000000000000000E+00   0.0000000000000000E+00   1.3920000000000000E-03   1.4490000000000000E-03  -1.8550000000000001E-03
atom   2.4633500000000028E-01   6.3899059999999999E+00   6.7666010000000023E+00 Mg   0.0000000000000000E+00   0.0000000000000000E+00  -2.7399999999999999E-04  -6.1100000000000000E-04  -2.8400000000000002E-04
atom   3.3540070000000011E+00   8.0990420000000025E+00   1.9927059999999999E+00 Mg   0.0000000000000000E+00   0.0000000000000000E+00  -1.1069999999999999E-03   3.2699999999999998E-04   5.2899999999999996E-04
atom   6.3591270000000000E+00   6.3957930000000029E+00   7.0714730000000001E+00 Mg   0.0000000000000000E+00   0.0000000000000000E+00   6.1700000000000004E-04  -1.3940000000000001E-03  -5.9560000000000004E-03
atom  -3.4011389999999988E+00   8.1397820000000003E+00   1.8634820000000005E+00 Mg   0.0000000000000000E+00   0.0000000000000000E+00   6.9899999999999997E-04   1.0500000000000000E-04   2.5669999999999998E-03
atom  -3.8974399999999759E-01   6.2971860000000008E+00   6.6564440000000005E+00 Mg   0.0000000000000000E+00   0.0000000000000000E+00  -1.4640000000000000E-03   8.2100000000000001E-04  -2.2520000000000001E-03
atom   2.6531490000000049E+00   8.3608729999999980E+00   1.6935589999999996E+00 Mg   0.0000000000000000E+00   0.0000000000000000E+00  -1.0989999999999999E-03  -3.0090000000000000E-03   1.1230000000000001E-03
atom   5.5476430000000043E+00   6.4727309999999987E+00   6.6369690000000015E+00 Mg   0.0000000000000000E+00   0.0000000000000000E+00   3.1000000000000000E-04  -1.6310000000000001E-03  -1.2060000000000000E-03
energy  -5.6367213000000000E+01
charge   0.0000000000000000E+00
end
begin
comment  i =     1600, time =      800.000, E =       -56.3652069117
lattice   1.2823368000000000E+01   0.0000000000000000E+00   0.0000000000000000E+00
lattice  -6.4116840000000002E+00   1.1105363000000001E+01   0.0000000000000000E+00
lattice   0.0000000000000000E+00   0.0000000000000000E+00   1.0297567000000001E+01
atom  -6.3080000000000261E-02   3.5597919999999994E+00   2.4437340000000001E+00 Mg   0.0000000000000000E+00   0.0000000000000000E+00   1.7760000000000000E-03  -1.2030000000000001E-03  -8.5200000000000000E-04
atom   2.7003089999999994E+00   1.5312929999999996E+00   7.1578399999999993E+00 Mg   0.0000000000000000E+00   0.0000000000000000E+00   4.1820000000000000E-03   3.9870000000000001E-03  -1.0240000000000000E-03
atom   5.9117579999999990E+00   3.4286439999999989E+00   2.1242880000000000E+00 Mg   0.0000000000000000E+00   0.0000000000000000E+00   1.1349999999999999E-03  -1.6600000000000000E-03   4.9290000000000002E-03
atom   8.8405249999999977E+00   1.7290589999999997E+00   7.2078189999999998E+00 Mg   0.0000000000000000E+00   0.0000000000000000E+00   2.2209999999999999E-03   2.1710000000000002E-03  -6.1100000000000000E-04
atom  -6.3678800000000313E-01   3.4584579999999994E+00   2.4162530000000002E+00 Mg   0.0000000000000000E+00   0.0000000000000000E+00  -1.3920000000000000E-03   5.4299999999999997E-04  -2.3300000000000000E-04
atom   2.1536029999999977E+00   1.7133499999999997E+00   7.4160859999999991E+00 Mg   0.0000000000000000E+00   0.0000000000000000E+00   4.9299999999999995E-04   2.3720000000000000E-03  -1.6899999999999999E-04
atom   5.3709629999999926E+00   3.4530849999999993E+00   2.5447250000000001E+00 Mg   0.0000000000000000E+00   0.0000000000000000E+00  -4.5600000000000003E-04   2.5409999999999999E-03  -1.6470000000000000E-03
atom   8.1528709999999958E+00   1.7024509999999997E+00   7.4105080000000001E+00 Mg   0.0000000000000000E+00   0.0000000000000000E+00   1.9090000000000001E-03   1.6220000000000000E-03  -1.2190000000000000E-03
atom  -2.7868129999999995E+00   8.7332089999999987E+00   2.3991780000000000E+00 Mg   0.0000000000000000E+00   0.0000000000000000E+00  -3.1140000000000000E-03  -1.1490000000000001E-03   1.3489999999999999E-03
atom   3.6091000000000290E-02   6.9121149999999991E+00   7.4518019999999989E+00 Mg   0.0000000000000000E+00   0.0000000000000000E+00  -5.4000000000000001E-04   7.2199999999999999E-04  -4.6810000000000003E-03