begin
comment  i =       50, time =       25.000, E =       -56.1799039069
lattice   1.2863867000000001E+01   0.0000000000000000E+00   0.0000000000000000E+00
lattice  -6.4319340000000000E+00   1.1140435999999999E+01   0.0000000000000000E+00
lattice   0.0000000000000000E+00   0.0000000000000000E+00   1.0330088999999999E+01
atom  -2.8628899999999985E-01   3.3955099999999994E+00   2.6222789999999998E+00 Mg   0.0000000000000000E+00   0.0000000000000000E+00   8.0429999999999998E-03   3.3549999999999999E-03  -3.0010000000000002E-03
atom   2.8933700000000000E+00   1.5710400000000000E+00   7.2457409999999998E+00 Mg   0.0000000000000000E+00   0.0000000000000000E+00  -2.1570000000000001E-03   6.4599999999999998E-04   1.2818000000000000E-02
atom   5.8549999999999995E+00   3.1783380000000001E+00   3.0761669999999999E+00 Mg   0.0000000000000000E+00   0.0000000000000000E+00   1.1420000000000000E-03   9.7630000000000008E-03  -1.5764000000000000E-02
atom   8.6904520000000005E+00   1.9868230000000000E+00   7.8997580000000012E+00 Mg   0.0000000000000000E+00   0.0000000000000000E+00   2.1222999999999999E-02  -2.1840000000000002E-03  -2.8849000000000000E-02
atom  -9.5057600000000275E-01   3.5639649999999996E+00   2.6585650000000003E+00 Mg   0.0000000000000000E+00   0.0000000000000000E+00   3.4090000000000001E-03  -5.1729999999999996E-03  -1.5730000000000000E-03
atom   2.0938450000000004E+00   2.1707450000000001E+00   7.2845800000000009E+00 Mg   0.0000000000000000E+00   0.0000000000000000E+00   2.3180000000000002E-03  -9.1950000000000000E-03  -9.6609999999999994E-03
atom   5.1456229999999987E+00   3.7818429999999998E+00   1.9658290000000000E+00 Mg   0.0000000000000000E+00   0.0000000000000000E+00   3.7290000000000001E-03  -1.1030000000000000E-03   1.2763999999999999E-02
atom   8.0114890000000010E+00   1.4843079999999997E+00   6.9507010000000005E+00 Mg   0.0000000000000000E+00   0.0000000000000000E+00  -1.6140000000000000E-03   3.9509999999999997E-03   4.4429999999999999E-03
atom  -2.6884420000000002E+00   8.4745069999999991E+00   2.3883770000000002E+00 Mg   0.0000000000000000E+00   0.0000000000000000E+00  -6.6900000000000000E-04   1.0425000000000000E-02   2.3999999999999998E-03
atom   6.6895499999999986E-01   6.7973679999999996E+00   7.1968900000000007E+00 Mg   0.0000000000000000E+00   0.0000000000000000E+00  -1.5075000000000000E-02   6.2059999999999997E-03   3.3779999999999999E-03
atom   3.6033839999999993E+00   8.5455419999999993E+00   2.6421839999999999E+00 Mg   0.0000000000000000E+00   0.0000000000000000E+00  -8.9099999999999995E-03   7.1430000000000000E-03  -1.5162000000000000E-02
atom   6.0097050000000003E+00   7.4031789999999997E+00   7.3330900000000003E+00 Mg   0.0000000000000000E+00   0.0000000000000000E+00   1.0876000000000000E-02  -8.9720000000000008E-03   8.7600000000000004E-04
atom  -3.6104680000000009E+00   8.3687879999999986E+00   2.2070750000000001E+00 Mg   0.0000000000000000E+00   0.0000000000000000E+00  -2.5110000000000002E-03   8.4370000000000001E-03   3.2399999999999998E-03
atom  -7.8495100000000151E-01   7.3116180000000002E+00   7.2991720000000004E+00 Mg   0.0000000000000000E+00   0.0000000000000000E+00   1.7600000000000000E-04  -3.4150000000000001E-03   3.0780000000000000E-03
atom   2.9318699999999991E+00   8.7661029999999993E+00   3.0560610000000001E+00 Mg   0.0000000000000000E+00   0.0000000000000000E+00  -1.0964000000000000E-02   1.9580000000000001E-03  -2.0372999999999999E-02
atom   5.6113409999999977E+00   7.1028769999999994E+00   7.2984130000000000E+00 Mg   0.0000000000000000E+00   0.0000000000000000E+00   4.3699999999999998E-03  -2.1020000000000001E-03   2.1700000000000001E-03
atom  -8.2571999999999757E-02   3.2328119999999996E+00   2.3565820000000000E+00 Mg   0.0000000000000000E+00   0.0000000000000000E+00   1.3958999999999999E-02  -1.0080000000000000E-02   3.1879999999999999E-03
atom   3.5475020000000010E+00   1.2385980000000016E+00   7.5143620000000011E+00 Mg   0.0000000000000000E+00   0.0000000000000000E+00  -1.7020000000000000E-03  -3.0179999999999998E-03  -2.6870000000000002E-03
atom   6.4309819999999993E+00   2.8048169999999990E+00   2.2520440000000002E+00 Mg   0.0000000000000000E+00   0.0000000000000000E+00  -4.7900000000000000E-03   1.4270000000000001E-03   9.8379999999999995E-03
atom   9.7768579999999989E+00   1.2947150000000005E+00   7.5257390000000006E+00 Mg   0.0000000000000000E+00   0.0000000000000000E+00  -6.1809999999999999E-03   1.3799999999999999E-04  -1.7459999999999999E-03
atom  -3.5877400000000054E-01   3.5496059999999994E+00   2.1053050000000000E+00 Mg   0.0000000000000000E+00   0.0000000000000000E+00   4.5459999999999997E-03  -1.1868000000000000E-02   1.2343000000000000E-02
atom   2.7033200000000019E+00   9.9115999999999915E-01   7.7258210000000007E+00 Mg   0.0000000000000000E+00   0.0000000000000000E+00  -2.0520000000000000E-03   5.2900000000000004E-03  -2.3344000000000000E-02
atom   5.6986729999999985E+00   2.7011560000000014E+00   1.5810850000000001E+00 Mg   0.0000000000000000E+00   0.0000000000000000E+00  -1.2579999999999999E-02   8.7180000000000001E-03   2.9201999999999999E-02
atom   8.6949790000000000E+00   1.2103860000000004E+00   6.9800110000000011E+00 Mg   0.0000000000000000E+00   0.0000000000000000E+00   1.9800000000000000E-03   8.7860000000000004E-03   6.5510000000000004E-03
atom  -2.4528249999999998E+00   7.9191989999999999E+00   2.9536460000000000E+00 Mg   0.0000000000000000E+00   0.0000000000000000E+00  -1.5452000000000000E-02   3.5130000000000001E-03  -2.8839999999999998E-03
atom   6.9133400000000167E-01   6.7849699999999977E+00   7.5479200000000013E+00 Mg   0.0000000000000000E+00   0.0000000000000000E+00  -7.1279999999999998E-03  -1.2345999999999999E-02   5.7460000000000002E-03
atom   2.9344480000000011E+00   8.2917129999999997E+00   2.5321959999999999E+00 Mg   0.0000000000000000E+00   0.0000000000000000E+00   1.5009000000000000E-02  -3.5920000000000001E-03  -7.7790000000000003E-03
atom   6.4796410000000000E+00   6.4158790000000012E+00   6.7746670000000009E+00 Mg   0.0000000000000000E+00   0.0000000000000000E+00   2.3059999999999999E-03   5.1269999999999996E-03   6.8599999999999998E-03
atom  -3.4790439999999996E+00   8.3608810000000009E+00   2.0390359999999998E+00 Mg   0.0000000000000000E+00   0.0000000000000000E+00  -3.7490000000000002E-03   2.4620000000000002E-03   9.1760000000000001E-03
atom  -3.3224900000000146E-01   6.2773720000000015E+00   7.2766400000000013E+00 Mg   0.0000000000000000E+00   0.0000000000000000E+00   1.6300000000000000E-04   6.5770000000000004E-03  -2.9150000000000001E-03
atom   3.1234079999999991E+00   8.4170389999999990E+00   2.2338819999999999E+00 Mg   0.0000000000000000E+00   0.0000000000000000E+00  -6.9600000000000000E-03  -1.1649000000000000E-02   4.6400000000000000E-03
atom   5.9390269999999985E+00   6.6887060000000007E+00   7.9951710000000009E+00 Mg   0.0000000000000000E+00   0.0000000000000000E+00  -1.7140000000000000E-03  -1.0289000000000000E-02  -8.7530000000000004E-03
atom   3.9000500000000038E-01   3.8391109999999995E+00   1.9762690000000016E+00 Mg   0.0000000000000000E+00   0.0000000000000000E+00  -3.8880000000000000E-03  -1.7420999999999999E-02  -3.3809999999999999E-03
atom   2.7329669999999999E+00   1.5101620000000000E+00   7.4238730000000039E+00 Mg   0.0000000000000000E+00   0.0000000000000000E+00   4.8490000000000000E-03   7.9380000000000006E-03  -7.4799999999999997E-04
atom   6.2756320000000008E+00   3.2953509999999997E+00   1.4831680000000009E+00 Mg   0.0000000000000000E+00   0.0000000000000000E+00  -1.9977999999999999E-02   1.3321000000000000E-02   1.8803000000000000E-02
atom   8.7718260000000008E+00   1.7981380000000000E+00   6.2245450000000027E+00 Mg   0.0000000000000000E+00   0.0000000000000000E+00   4.2620000000000002E-03   3.5000000000000001E-03   1.6299000000000001E-02
atom  -4.3934000000000228E-01   3.3437800000000002E+00   1.7445540000000013E+00 Mg   0.0000000000000000E+00   0.0000000000000000E+00  -8.8889999999999993E-03   3.7799999999999999E-03   8.0020000000000004E-03
atom   2.8996330000000015E+00   1.9133259999999999E+00   6.7408990000000024E+00 Mg   0.0000000000000000E+00   0.0000000000000000E+00  -1.5893999999999998E-02  -2.2800000000000001E-04  -8.7779999999999993E-03
atom   5.3248099999999976E+00   3.4437689999999996E+00   1.3695320000000026E+00 Mg   0.0000000000000000E+00   0.0000000000000000E+00   1.1462999999999999E-02  -5.1770000000000002E-03   5.3429999999999997E-03
atom   8.4072739999999975E+00   1.7768289999999998E+00   6.7940450000000041E+00 Mg   0.0000000000000000E+00   0.0000000000000000E+00   3.0370000000000002E-03   2.1100000000000001E-04  -4.7609999999999996E-03
atom  -2.9759859999999998E+00   8.2419519999999995E+00   1.6696870000000030E+00 Mg   0.0000000000000000E+00   0.0000000000000000E+00   8.8800000000000001E-04   1.3646999999999999E-02  -5.7380000000000000E-03
atom  -3.1197699999999989E-01   6.8292460000000004E+00   6.6071569999999991E+00 Mg   0.0000000000000000E+00   0.0000000000000000E+00   1.4996000000000001E-02   7.2500000000000004E-03   8.8090000000000009E-03
atom   2.8830300000000011E+00   8.6546730000000007E+00   1.9588830000000015E+00 Mg   0.0000000000000000E+00   0.0000000000000000E+00  -5.7799999999999995E-04   1.3176000000000000E-02  -4.3980000000000000E-03
atom   5.8505599999999998E+00   6.9451780000000003E+00   6.2442980000000032E+00 Mg   0.0000000000000000E+00   0.0000000000000000E+00  -1.8070000000000000E-03  -3.7460000000000002E-03   1.7507999999999999E-02
atom  -4.2725270000000020E+00   8.6906409999999994E+00   1.7940320000000018E+00 Mg   0.0000000000000000E+00   0.0000000000000000E+00   1.1226999999999999E-02  -3.9899999999999996E-03   2.2989999999999998E-03
atom  -8.5510899999999979E-01   6.6633630000000004E+00   6.9644630000000021E+00 Mg   0.0000000000000000E+00   0.0000000000000000E+00   6.7349999999999997E-03   3.5869999999999999E-03  -4.8139999999999997E-03
atom   2.4051779999999994E+00   8.0769540000000006E+00   2.0382720000000019E+00 Mg   0.0000000000000000E+00   0.0000000000000000E+00  -4.3930000000000002E-03   1.3181999999999999E-02  -1.6390000000000000E-03
atom   5.8406100000000007E+00   7.0057709999999993E+00   6.2608170000000021E+00 Mg   0.0000000000000000E+00   0.0000000000000000E+00  -1.4286000000000000E-02   1.6100000000000001E-03   1.1335000000000000E-02
atom   2.7645000000000014E-01   2.7290710000000011E+00   2.0930620000000020E+00 Mg   0.0000000000000000E+00   0.0000000000000000E+00   1.9750000000000002E-03   4.9500000000000000E-04  -2.3029999999999999E-03
atom   3.2086609999999998E+00   1.2120600000000008E+00   6.9548820000000013E+00 Mg   0.0000000000000000E+00   0.0000000000000000E+00  -2.7060000000000001E-03  -3.1570000000000001E-03  -4.3500000000000000E-04
atom   6.4246390000000018E+00   2.8571979999999990E+00   2.2213810000000023E+00 Mg   0.0000000000000000E+00   0.0000000000000000E+00   4.0099999999999999E-04  -2.7000000000000000E-04  -1.2562000000000000E-02
atom   9.1478550000000016E+00   1.4515579999999986E+00   6.9322390000000018E+00 Mg   0.0000000000000000E+00   0.0000000000000000E+00   7.5560000000000002E-03  -1.5030000000000000E-02  -2.9759999999999999E-03
atom   3.0363300000000110E-01   3.2055230000000003E+00   1.9047060000000013E+00 Mg   0.0000000000000000E+00   0.0000000000000000E+00  -2.0975000000000001E-02  -3.0929999999999998E-03  -2.1530000000000000E-03
atom   2.7065120000000018E+00   1.1693570000000004E+00   6.2395090000000000E+00 Mg   0.0000000000000000E+00   0.0000000000000000E+00  -4.6109999999999996E-03  -5.7660000000000003E-03   1.0232000000000000E-02
atom   5.6914309999999979E+00   2.2864590000000007E+00   1.6139730000000030E+00 Mg   0.0000000000000000E+00   0.0000000000000000E+00   1.4363000000000001E-02   5.4460000000000003E-03   7.6210000000000002E-03
atom   8.4847789999999996E+00   1.0032950000000003E+00   7.1114120000000014E+00 Mg   0.0000000000000000E+00   0.0000000000000000E+00   1.6005999999999999E-02  -1.0773000000000000E-02  -2.2265000000000000E-02
atom  -2.7424959999999992E+00   7.9515890000000002E+00   2.4588949999999996E+00 Mg   0.0000000000000000E+00   0.0000000000000000E+00   3.9800000000000000E-03   5.0549999999999996E-03  -1.4109000000000000E-02
atom   2.0895100000000064E-01   6.8040299999999982E+00   6.8522940000000023E+00 Mg   0.0000000000000000E+00   0.0000000000000000E+00   3.8999999999999998E-03  -1.0267000000000000E-02   4.7080000000000004E-03
atom   3.3911730000000002E+00   8.5394620000000003E+00   1.9597200000000008E+00 Mg   0.0000000000000000E+00   0.0000000000000000E+00   6.1159999999999999E-03  -1.8814000000000001E-02  -5.4669999999999996E-03
atom   6.2578709999999989E+00   6.2997890000000023E+00   6.6072670000000038E+00 Mg   0.0000000000000000E+00   0.0000000000000000E+00  -4.0980000000000001E-03   1.1938000000000001E-02   6.3210000000000002E-03
atom  -3.1614740000000006E+00   8.4709020000000006E+00   2.0081040000000030E+00 Mg   0.0000000000000000E+00   0.0000000000000000E+00  -3.3560000000000000E-03  -9.3299999999999998E-03  -7.7279999999999996E-03
atom  -7.0274299999999990E-01   6.4395089999999975E+00   6.6860510000000017E+00 Mg   0.0000000000000000E+00   0.0000000000000000E+00   6.5740000000000000E-03   3.4020000000000001E-03  -2.4930000000000000E-03
atom   2.7461590000000000E+00   8.0417170000000002E+00   2.1924680000000034E+00 Mg   0.0000000000000000E+00   0.0000000000000000E+00  -3.4859999999999999E-03   1.2330000000000001E-02  -1.1259999999999999E-02
atom   5.4481239999999991E+00   6.6106590000000001E+00   6.4609730000000019E+00 Mg   0.0000000000000000E+00   0.0000000000000000E+00   1.5750000000000000E-03  -1.1743000000000000E-02   1.2508000000000000E-02
energy  -5.6179904000000001E+01
charge   0.0000000000000000E+00
end
begin
comment  i =    17580, time =     8790.000, E =       -56.3669779359
lattice   1.2819907000000001E+01   0.0000000000000000E+00   0.0000000000000000E+00
lattice  -6.4099529999999998E+00   1.1102365000000001E+01   0.0000000000000000E+00
lattice   0.0000000000000000E+00   0.0000000000000000E+00   1.0294788000000000E+01
atom   8.0240000000000061E-02   3.4033899999999999E+00   2.2884799999999998E+00 Mg   0.0000000000000000E+00   0.0000000000000000E+00  -2.5000000000000001E-04   2.7500000000000002E-04   3.2220000000000000E-03
atom   3.1968139999999998E+00   1.7828010000000003E+00   7.2059749999999996E+00 Mg   0.0000000000000000E+00   0.0000000000000000E+00  -2.7309999999999999E-03  -4.3800000000000002E-04   1.6329999999999999E-03
atom   5.9947750000000006E+00   3.3249059999999999E+00   2.5535790000000000E+00 Mg   0.0000000000000000E+00   0.0000000000000000E+00   1.2470000000000001E-03   4.8679999999999999E-03  -3.0200000000000001E-03
atom   9.2397629999999982E+00   2.0275690000000002E+00   7.4985660000000003E+00 Mg   0.0000000000000000E+00   0.0000000000000000E+00  -1.8610000000000000E-03  -5.3839999999999999E-03  -4.3959999999999997E-03
atom  -7.1318000000000226E-01   3.4771350000000001E+00   2.3642710000000000E+00 Mg   0.0000000000000000E+00   0.0000000000000000E+00   6.3699999999999998E-04   1.8289999999999999E-03   1.5550000000000000E-03
atom   2.3415679999999974E+00   1.8633869999999999E+00   7.2903399999999996E+00 Mg   0.0000000000000000E+00   0.0000000000000000E+00   9.0200000000000002E-04  -1.6370000000000000E-03   1.0050000000000000E-03
atom   5.5319979999999962E+00   3.4395210000000005E+00   2.5665730000000000E+00 Mg   0.0000000000000000E+00   0.0000000000000000E+00  -1.2780000000000001E-03   2.9799999999999998E-04  -3.6170000000000000E-03
atom   8.4317589999999996E+00   1.8100790000000000E+00   7.3231999999999999E+00 Mg   0.0000000000000000E+00   0.0000000000000000E+00  -1.1200000000000000E-04  -2.0910000000000000E-03   2.0799999999999998E-03
atom  -2.9893710000000002E+00   8.7354930000000017E+00   2.4174289999999998E+00 Mg   0.0000000000000000E+00   0.0000000000000000E+00  -6.6600000000000003E-04  -9.7799999999999992E-04  -2.1699999999999999E-04
atom  -6.0257999999999694E-02   6.9192299999999998E+00   7.2353579999999997E+00 Mg   0.0000000000000000E+00   0.0000000000000000E+00   8.7799999999999998E-04  -1.1709999999999999E-03   2.0820000000000001E-03
atom   2.9443110000000008E+00   8.7617940000000001E+00   2.4882540000000000E+00 Mg   0.0000000000000000E+00   0.0000000000000000E+00   8.3000000000000001E-04  -1.6600000000000000E-04  -1.5880000000000000E-03
atom   6.0792060000000010E+00   7.0257519999999998E+00   7.2479060000000004E+00 Mg   0.0000000000000000E+00   0.0000000000000000E+00  -1.5950000000000001E-03   1.1529999999999999E-03   1.0910000000000000E-03
atom  -3.8440859999999994E+00   8.8256979999999992E+00   2.3787579999999999E+00 Mg   0.0000000000000000E+00   0.0000000000000000E+00   1.3060000000000001E-03  -3.6999999999999998E-05   2.5500000000000002E-04
atom  -7.9837300000000111E-01   7.0973220000000010E+00   7.2283799999999996E+00 Mg   0.0000000000000000E+00   0.0000000000000000E+00   2.5100000000000001E-03   1.3129999999999999E-03  -2.6300000000000000E-03
atom   2.4201089999999996E+00   8.5989930000000001E+00   2.3498770000000002E+00 Mg   0.0000000000000000E+00   0.0000000000000000E+00  -1.5860000000000000E-03   1.1069999999999999E-03   2.2750000000000001E-03
atom   5.2501889999999989E+00   6.9947770000000009E+00   7.3648110000000004E+00 Mg   0.0000000000000000E+00   0.0000000000000000E+00   2.5590000000000001E-03  -3.2600000000000001E-04  -5.3399999999999997E-04
atom   4.8053199999999952E-01   2.8970900000000008E+00   2.5033360000000000E+00 Mg   0.0000000000000000E+00   0.0000000000000000E+00  -1.7920000000000000E-03  -5.1300000000000000E-04  -1.6530000000000000E-03
atom   3.5331659999999996E+00   9.6865799999999980E-01   7.4151439999999997E+00 Mg   0.0000000000000000E+00   0.0000000000000000E+00  -4.7600000000000003E-03   2.6860000000000000E-03  -4.1100000000000002E-04
atom   6.3070900000000005E+00   2.9165660000000000E+00   2.5379790000000000E+00 Mg   0.0000000000000000E+00   0.0000000000000000E+00   1.6019999999999999E-03   1.0039999999999999E-03  -1.3140000000000001E-03
atom   9.3157010000000007E+00   1.0935299999999992E+00   7.3652499999999996E+00 Mg   0.0000000000000000E+00   0.0000000000000000E+00   2.4520000000000002E-03   4.0000000000000002E-04   1.6290000000000000E-03
atom  -4.6960000000000029E-01   2.8886139999999987E+00   2.5604000000000000E+00 Mg   0.0000000000000000E+00   0.0000000000000000E+00  -2.6999999999999999E-05  -3.9300000000000001E-04  -2.5839999999999999E-03
atom   2.6134800000000009E+00   1.2093989999999999E+00   7.3320319999999999E+00 Mg   0.0000000000000000E+00   0.0000000000000000E+00   2.0799999999999999E-04  -3.9300000000000001E-04  -2.3950000000000000E-03
atom   5.6972549999999984E+00   2.9468090000000013E+00   2.3606870000000000E+00 Mg   0.0000000000000000E+00   0.0000000000000000E+00  -8.0099999999999995E-04  -4.2449999999999996E-03   1.3370000000000001E-03
atom   8.8272309999999994E+00   1.1660010000000001E+00   7.0510279999999996E+00 Mg   0.0000000000000000E+00   0.0000000000000000E+00  -1.2630000000000000E-03   4.3999999999999999E-05   4.6800000000000001E-03
atom  -2.7428680000000001E+00   8.0270480000000006E+00   2.2052670000000001E+00 Mg   0.0000000000000000E+00   0.0000000000000000E+00   3.3509999999999998E-03   2.0270000000000002E-03   1.6500000000000000E-03
atom   4.6069300000000085E-01   6.3802539999999990E+00   7.2313380000000000E+00 Mg   0.0000000000000000E+00   0.0000000000000000E+00   1.1150000000000001E-03   9.2999999999999997E-05   2.0019999999999999E-03
atom   3.3369400000000011E+00   8.2779790000000002E+00   2.5131850000000000E+00 Mg   0.0000000000000000E+00   0.0000000000000000E+00   1.5060000000000000E-03  -2.2510000000000000E-03   3.9100000000000002E-04
atom   6.4424319999999993E+00   6.4163640000000024E+00   7.2923340000000003E+00 Mg   0.0000000000000000E+00   0.0000000000000000E+00   4.1199999999999999E-04   7.2599999999999997E-04   1.3960000000000001E-03
atom  -3.3272190000000004E+00   8.3347720000000010E+00   2.4803480000000002E+00 Mg   0.0000000000000000E+00   0.0000000000000000E+00  -3.3799999999999998E-04  -3.1970000000000002E-03  -1.0369999999999999E-03
atom  -2.2680900000000184E-01   6.4025220000000020E+00   7.3003950000000000E+00 Mg   0.0000000000000000E+00   0.0000000000000000E+00  -1.4880000000000000E-03   1.1180000000000001E-03   1.6130000000000001E-03
atom   2.7628799999999978E+00   7.9372250000000024E+00   2.3960420000000000E+00 Mg   0.0000000000000000E+00   0.0000000000000000E+00  -3.2200000000000002E-03   3.2220000000000000E-03  -6.3500000000000004E-04
atom   5.8984620000000003E+00   6.4668410000000023E+00   7.0964650000000002E+00 Mg   0.0000000000000000E+00   0.0000000000000000E+00  -1.7090000000000000E-03  -1.3100000000000000E-03   4.0090000000000004E-03
atom   8.2270000000000815E-03   3.3402670000000003E+00   1.9131489999999989E+00 Mg   0.0000000000000000E+00   0.0000000000000000E+00   3.5500000000000001E-04   2.1660000000000000E-03  -3.9080000000000000E-03
atom   3.0758310000000004E+00   1.8102499999999999E+00   6.5496009999999982E+00 Mg   0.0000000000000000E+00   0.0000000000000000E+00   7.1699999999999997E-04  -3.0109999999999998E-03   3.2079999999999999E-03
atom   6.0991899999999983E+00   3.4836220000000004E+00   1.8871399999999992E+00 Mg   0.0000000000000000E+00   0.0000000000000000E+00   1.9799999999999999E-04   2.7360000000000002E-03  -2.0400000000000000E-04
atom   8.9584240000000026E+00   1.9123860000000001E+00   6.8015650000000010E+00 Mg   0.0000000000000000E+00   0.0000000000000000E+00   2.8430000000000000E-03  -2.4299999999999999E-03  -9.3099999999999997E-04
atom  -5.7252099999999850E-01   3.6096040000000005E+00   1.8135769999999996E+00 Mg   0.0000000000000000E+00   0.0000000000000000E+00   4.0800000000000000E-04  -1.3230000000000000E-03   3.4629999999999999E-03
atom   2.3447610000000005E+00   1.7876369999999999E+00   6.6550569999999984E+00 Mg   0.0000000000000000E+00   0.0000000000000000E+00  -1.1940000000000000E-03  -1.2780000000000001E-03   2.7550000000000001E-03
atom   5.4333559999999999E+00   3.4363640000000006E+00   2.0231559999999993E+00 Mg   0.0000000000000000E+00   0.0000000000000000E+00  -6.4999999999999994E-05  -5.2499999999999997E-04  -4.3130000000000000E-03
atom   8.5229650000000010E+00   1.6232700000000000E+00   6.7893210000000019E+00 Mg   0.0000000000000000E+00   0.0000000000000000E+00  -3.5699999999999998E-03  -4.5800000000000002E-04   8.4000000000000003E-04
atom  -3.0582530000000001E+00   8.6961980000000008E+00   1.9552839999999987E+00 Mg   0.0000000000000000E+00   0.0000000000000000E+00   1.8000000000000000E-05  -1.8000000000000001E-04  -1.6299999999999999E-03
atom   1.3284999999999757E-02   6.8887080000000003E+00   6.7353449999999997E+00 Mg   0.0000000000000000E+00   0.0000000000000000E+00  -1.1600000000000000E-03   2.1299999999999999E-03  -5.0299999999999997E-04
atom   3.0378049999999996E+00   8.5745880000000003E+00   1.8597369999999986E+00 Mg   0.0000000000000000E+00   0.0000000000000000E+00  -7.7700000000000002E-04   2.3159999999999999E-03  -6.7999999999999999E-05
atom   5.9940990000000012E+00   7.0670360000000008E+00   6.7906019999999989E+00 Mg   0.0000000000000000E+00   0.0000000000000000E+00  -3.3000000000000003E-05   1.1050000000000001E-03  -6.1700000000000004E-04
atom  -3.6513909999999998E+00   8.7103359999999999E+00   1.8098919999999994E+00 Mg   0.0000000000000000E+00   0.0000000000000000E+00  -2.9889999999999999E-03   1.5039999999999999E-03   1.6140000000000000E-03
atom  -8.4675499999999837E-01   7.0467769999999996E+00   6.7041429999999975E+00 Mg   0.0000000000000000E+00   0.0000000000000000E+00   1.0870000000000001E-03  -4.4400000000000000E-04  -1.0460000000000001E-03
atom   2.3004259999999994E+00   8.6997979999999995E+00   1.7530889999999990E+00 Mg   0.0000000000000000E+00   0.0000000000000000E+00   7.0799999999999997E-04   3.1010000000000000E-03   3.1270000000000000E-03
atom   5.3188179999999994E+00   6.8596670000000008E+00   6.7091290000000008E+00 Mg   0.0000000000000000E+00   0.0000000000000000E+00   6.8199999999999999E-04   1.3100000000000000E-03   1.1960000000000000E-03
atom   1.8587499999999857E-01   2.8947560000000010E+00   1.9241119999999980E+00 Mg   0.0000000000000000E+00   0.0000000000000000E+00   6.9300000000000004E-04  -6.2100000000000002E-04  -7.2199999999999999E-04
atom   3.2126249999999992E+00   1.0561470000000004E+00   6.7687989999999978E+00 Mg   0.0000000000000000E+00   0.0000000000000000E+00   4.8099999999999998E-04   2.8400000000000002E-04  -2.5500000000000002E-04
atom   6.1862889999999986E+00   2.9146980000000005E+00   1.9385099999999993E+00 Mg   0.0000000000000000E+00   0.0000000000000000E+00   2.2139999999999998E-03   7.9699999999999997E-04   5.1900000000000004E-04
atom   9.2402549999999994E+00   1.2060690000000001E+00   6.7817949999999998E+00 Mg   0.0000000000000000E+00   0.0000000000000000E+00   1.2240000000000000E-03  -1.9170000000000001E-03  -4.8999999999999998E-05
atom  -4.9439700000000136E-01   2.8211879999999998E+00   1.9034549999999990E+00 Mg   0.0000000000000000E+00   0.0000000000000000E+00  -3.8800000000000000E-04  -6.3500000000000004E-04  -1.2370000000000000E-03
atom   2.6108709999999995E+00   1.3119099999999999E+00   6.6253089999999988E+00 Mg   0.0000000000000000E+00   0.0000000000000000E+00  -1.1980000000000001E-03  -2.7680000000000001E-03   1.4670000000000000E-03
atom   5.6035589999999997E+00   2.8660559999999986E+00   1.6579050000000004E+00 Mg   0.0000000000000000E+00   0.0000000000000000E+00   2.8500000000000001E-03   8.8999999999999995E-05   2.9169999999999999E-03
atom   8.5139879999999994E+00   9.8233400000000093E-01   6.8857269999999993E+00 Mg   0.0000000000000000E+00   0.0000000000000000E+00   3.5639999999999999E-03   2.8509999999999998E-03  -5.5680000000000000E-03
atom  -2.5329780000000013E+00   8.2083890000000004E+00   1.6609909999999988E+00 Mg   0.0000000000000000E+00   0.0000000000000000E+00  -1.3280000000000000E-03  -2.5999999999999999E-03   2.2460000000000002E-03
atom   4.7178499999999995E-01   6.3301970000000010E+00   6.7705619999999991E+00 Mg   0.0000000000000000E+00   0.0000000000000000E+00  -1.6360000000000001E-03   8.0500000000000005E-04  -2.8700000000000002E-03
atom   3.5437749999999983E+00   8.3402340000000024E+00   1.9538519999999995E+00 Mg   0.0000000000000000E+00   0.0000000000000000E+00  -1.3770000000000000E-03  -3.1900000000000001E-03  -7.2000000000000002E-05
atom   6.3905630000000011E+00   6.4144880000000013E+00   6.8853389999999992E+00 Mg   0.0000000000000000E+00   0.0000000000000000E+00  -7.2499999999999995E-04   6.7599999999999995E-04  -1.9840000000000001E-03
atom  -3.3314990000000027E+00   8.0895910000000022E+00   1.8617850000000000E+00 Mg   0.0000000000000000E+00   0.0000000000000000E+00  -1.0280000000000001E-03   4.7699999999999999E-04  -1.3359999999999999E-03
atom  -5.6366500000000097E-01   6.2927300000000024E+00   6.7597549999999993E+00 Mg   0.0000000000000000E+00   0.0000000000000000E+00   2.8769999999999998E-03   2.2750000000000001E-03   7.4799999999999997E-04
atom   2.6947269999999972E+00   8.0649970000000017E+00   1.9205419999999986E+00 Mg   0.0000000000000000E+00   0.0000000000000000E+00  -2.4899999999999998E-04  -3.7199999999999999E-04  -2.0709999999999999E-03
atom   5.7668649999999984E+00   6.3489020000000016E+00   6.6082099999999988E+00 Mg   0.0000000000000000E+00   0.0000000000000000E+00   7.6300000000000001E-04  -5.0000000000000001E-04  -2.5899999999999999E-03
energy  -5.6366978000000003E+01
charge   0.0000000000000000E+00
end
begin
comment  i =    14020, time =     7010.000, E =       -56.3672125690
lattice   1.2830911000000000E+01   0.0000000000000000E+00   0.0000000000000000E+00
lattice  -6.4154559999999998E+00   1.1111895000000001E+01   0.0000000000000000E+00
lattice   0.0000000000000000E+00   0.0000000000000000E+00   1.0303623999999999E+01
atom   1.2621600000000047E-01   3.4813480000000001E+00   2.5357880000000002E+00 Mg   0.0000000000000000E+00   0.0000000000000000E+00  -4.8199999999999996E-03   1.7220000000000000E-03  -1.1659999999999999E-03
atom   3.0235040000000009E+00   1.8790060000000002E+00   7.4249119999999991E+00 Mg   0.0000000000000000E+00   0.0000000000000000E+00   1.0000000000000000E-03  -4.5529999999999998E-03   1.1039999999999999E-03
atom   6.0550730000000028E+00   3.5629740000000001E+00   2.7332030000000000E+00 Mg   0.0000000000000000E+00   0.0000000000000000E+00   1.5650000000000000E-03  -1.2630000000000000E-03  -4.7359999999999998E-03
atom   9.1041250000000016E+00   1.6190629999999999E+00   7.3653490000000001E+00 Mg   0.0000000000000000E+00   0.0000000000000000E+00  -1.5050000000000000E-03   9.5000000000000000E-04  -8.1400000000000005E-04
atom  -7.5414399999999870E-01   3.3726440000000006E+00   2.4113050000000000E+00 Mg   0.0000000000000000E+00   0.0000000000000000E+00   1.2979999999999999E-03   8.4199999999999998E-04   2.2699999999999999E-04
atom   2.2719940000000007E+00   1.5306760000000001E+00   7.4407139999999998E+00 Mg   0.0000000000000000E+00   0.0000000000000000E+00   1.4540000000000000E-03   4.0410000000000003E-03  -4.2079999999999999E-03
atom   5.2771580000000045E+00   3.5440840000000002E+00   2.4736880000000001E+00 Mg   0.0000000000000000E+00   0.0000000000000000E+00   4.8999999999999998E-04  -2.0699999999999999E-04  -2.3779999999999999E-03
atom   8.4214050000000054E+00   1.6531410000000000E+00   7.1536109999999997E+00 Mg   0.0000000000000000E+00   0.0000000000000000E+00  -1.4109999999999999E-03   2.6300000000000000E-03   2.2820000000000002E-03
atom  -3.0227830000000004E+00   8.8241270000000007E+00   2.4254730000000002E+00 Mg   0.0000000000000000E+00   0.0000000000000000E+00   1.2019999999999999E-03  -2.7560000000000002E-03   4.7699999999999999E-04
atom   1.5045400000000075E-01   6.8915990000000011E+00   7.3364289999999999E+00 Mg   0.0000000000000000E+00   0.0000000000000000E+00  -2.3990000000000001E-03   4.1630000000000000E-03   3.5300000000000002E-04