begin
comment  i =     2810, time =     1405.000, E =       -56.2011861609
lattice   1.3070538000000001E+01   0.0000000000000000E+00   0.0000000000000000E+00
lattice  -6.5352690000000004E+00   1.1319418000000001E+01   0.0000000000000000E+00
lattice   0.0000000000000000E+00   0.0000000000000000E+00   1.0496052000000001E+01
atom  -4.2761299999999980E-01   3.5526119999999999E+00   2.6382230000000000E+00 Mg   0.0000000000000000E+00   0.0000000000000000E+00   3.3289999999999999E-03  -2.3779999999999999E-03   1.4150000000000000E-03
atom   3.5065119999999994E+00   2.2200290000000003E+00   8.0973830000000007E+00 Mg   0.0000000000000000E+00   0.0000000000000000E+00  -6.8989999999999998E-03   2.5509999999999999E-03  -1.4730999999999999E-02
atom   6.0508780000000009E+00   3.1575860000000002E+00   2.6861730000000001E+00 Mg   0.0000000000000000E+00   0.0000000000000000E+00   6.2500000000000003E-03   8.8699999999999994E-03   1.2289000000000000E-02
atom   8.9769690000000004E+00   1.4951749999999999E+00   7.4009859999999987E+00 Mg   0.0000000000000000E+00   0.0000000000000000E+00   3.5070000000000001E-03   7.2069999999999999E-03  -5.8349999999999999E-03
atom  -9.0428600000000214E-01   3.9662260000000003E+00   2.7391440000000000E+00 Mg   0.0000000000000000E+00   0.0000000000000000E+00   2.3070000000000000E-03  -6.6340000000000001E-03  -1.8790000000000000E-03
atom   1.4108809999999992E+00   1.1253390000000003E+00   7.6409000000000002E+00 Mg   0.0000000000000000E+00   0.0000000000000000E+00   7.6590000000000000E-03   1.1050000000000001E-03  -6.9090000000000002E-03
atom   5.3294349999999993E+00   3.7834800000000004E+00   2.1822849999999998E+00 Mg   0.0000000000000000E+00   0.0000000000000000E+00  -8.0450000000000001E-03  -1.3230000000000000E-03   3.5460000000000001E-03
atom   7.5614090000000003E+00   2.1249660000000001E+00   7.1538709999999996E+00 Mg   0.0000000000000000E+00   0.0000000000000000E+00  -2.0900000000000001E-04  -5.2960000000000004E-03  -3.2599999999999999E-03
atom  -3.3557099999999997E+00   9.5394860000000001E+00   2.5924849999999999E+00 Mg   0.0000000000000000E+00   0.0000000000000000E+00   1.5009999999999999E-03  -6.8399999999999997E-03  -1.5427000000000000E-02
atom  -4.9530999999999895E-02   6.9671150000000006E+00   7.1789220000000000E+00 Mg   0.0000000000000000E+00   0.0000000000000000E+00   1.0449000000000000E-02  -6.5430000000000002E-03  -4.6909999999999999E-03
atom   3.3675980000000001E+00   8.3656030000000019E+00   2.2813949999999998E+00 Mg   0.0000000000000000E+00   0.0000000000000000E+00  -5.3109999999999997E-03   5.9059999999999998E-03   4.6719999999999999E-03
atom   6.6547339999999995E+00   7.2699080000000009E+00   7.2889320000000000E+00 Mg   0.0000000000000000E+00   0.0000000000000000E+00   3.8099999999999999E-04  -2.5019999999999999E-03  -1.2420000000000000E-03
atom  -3.4035570000000019E+00   8.9803709999999999E+00   2.4667919999999999E+00 Mg   0.0000000000000000E+00   0.0000000000000000E+00  -8.1980000000000004E-03   1.8959999999999999E-03   1.2580000000000000E-03
atom  -2.4474100000000243E-01   6.8261870000000009E+00   7.9693290000000001E+00 Mg   0.0000000000000000E+00   0.0000000000000000E+00  -2.6050000000000001E-03   2.7880000000000001E-03  -2.1229999999999999E-03
atom   2.1043929999999991E+00   9.4198880000000003E+00   2.8283670000000001E+00 Mg   0.0000000000000000E+00   0.0000000000000000E+00   5.0330000000000001E-03  -2.0300000000000001E-03  -4.7470000000000004E-03
atom   5.3892939999999951E+00   7.7074020000000010E+00   7.0901229999999993E+00 Mg   0.0000000000000000E+00   0.0000000000000000E+00  -3.2590000000000002E-03  -6.7689999999999998E-03   2.6660000000000000E-03
atom   2.5615799999999905E-01   3.1619590000000022E+00   2.6305319999999996E+00 Mg   0.0000000000000000E+00   0.0000000000000000E+00   3.5130000000000001E-03  -1.7040000000000000E-03  -8.7000000000000001E-04
atom   4.1336810000000002E+00   4.2906200000000227E-01   7.4860300000000004E+00 Mg   0.0000000000000000E+00   0.0000000000000000E+00  -4.5120000000000004E-03   1.2373000000000000E-02   1.5809999999999999E-03
atom   6.2490340000000000E+00   3.1934490000000006E+00   2.3148899999999997E+00 Mg   0.0000000000000000E+00   0.0000000000000000E+00   3.1819999999999999E-03  -5.0099999999999997E-03   8.6600000000000002E-04
atom   9.8485160000000000E+00   7.9850899999999936E-01   7.3943029999999990E+00 Mg   0.0000000000000000E+00   0.0000000000000000E+00   5.9599999999999996E-04   6.1700000000000004E-04  -4.9319999999999998E-03
atom  -3.1219200000000086E-01   2.5832809999999999E+00   2.3414649999999999E+00 Mg   0.0000000000000000E+00   0.0000000000000000E+00  -1.3600000000000001E-03  -2.5309999999999998E-03   3.4810000000000002E-03
atom   2.9369349999999992E+00   1.2202550000000003E+00   8.2015670000000007E+00 Mg   0.0000000000000000E+00   0.0000000000000000E+00  -1.0859999999999999E-03   9.0399999999999996E-04  -9.0310000000000008E-03
atom   6.1415199999999981E+00   3.7685790000000017E+00   2.2368960000000002E+00 Mg   0.0000000000000000E+00   0.0000000000000000E+00   4.6000000000000001E-04  -1.3688000000000001E-02   1.1083000000000001E-02
atom   8.6812719999999999E+00   1.9479310000000007E+00   7.4295199999999992E+00 Mg   0.0000000000000000E+00   0.0000000000000000E+00  -2.3720000000000000E-03  -1.9410000000000000E-03  -3.7460000000000002E-03
atom  -2.6221919999999996E+00   8.2411960000000022E+00   2.8907929999999999E+00 Mg   0.0000000000000000E+00   0.0000000000000000E+00  -5.8469999999999998E-03   8.1329999999999996E-03  -1.0830000000000000E-03
atom   4.8624000000001437E-02   6.9526330000000014E+00   7.5505919999999991E+00 Mg   0.0000000000000000E+00   0.0000000000000000E+00   7.8600000000000002E-04  -6.0450000000000000E-03  -9.9310000000000006E-03
atom   3.2441380000000004E+00   8.1351240000000011E+00   2.1220360000000000E+00 Mg   0.0000000000000000E+00   0.0000000000000000E+00   2.1730000000000000E-03   3.6010000000000000E-03   2.3270000000000001E-03
atom   5.7955070000000015E+00   5.7946970000000038E+00   7.4564870000000001E+00 Mg   0.0000000000000000E+00   0.0000000000000000E+00   7.5630000000000003E-03   7.1009999999999997E-03  -7.3829999999999998E-03
atom  -4.0867849999999990E+00   8.3734590000000004E+00   2.0481349999999998E+00 Mg   0.0000000000000000E+00   0.0000000000000000E+00   5.5050000000000003E-03  -3.6040000000000000E-03   8.3789999999999993E-03
atom  -7.4357499999999976E-01   5.9755230000000026E+00   7.1986659999999993E+00 Mg   0.0000000000000000E+00   0.0000000000000000E+00  -4.4440000000000000E-03   3.8730000000000001E-03  -1.8129999999999999E-03
atom   2.5028480000000015E+00   7.7027640000000011E+00   2.5344970000000000E+00 Mg   0.0000000000000000E+00   0.0000000000000000E+00  -1.1230000000000001E-03   1.4678999999999999E-02   7.3249999999999999E-03
atom   4.9830380000000005E+00   7.3367120000000012E+00   7.8079950000000000E+00 Mg   0.0000000000000000E+00   0.0000000000000000E+00   9.5149999999999992E-03  -4.1170000000000000E-03  -3.3130000000000000E-03
atom  -5.1425200000000004E-01   2.5318720000000003E+00   1.5433739999999998E+00 Mg   0.0000000000000000E+00   0.0000000000000000E+00   4.5319999999999996E-03   1.0315000000000000E-02   1.0130999999999999E-02
atom   3.1822269999999997E+00   2.2395380000000005E+00   7.6588389999999986E+00 Mg   0.0000000000000000E+00   0.0000000000000000E+00  -3.3679999999999999E-03  -8.0059999999999992E-03  -1.3787000000000001E-02
atom   6.1107909999999999E+00   4.0139800000000010E+00   2.2491229999999991E+00 Mg   0.0000000000000000E+00   0.0000000000000000E+00   3.7989999999999999E-03  -7.9399999999999991E-03   6.4650000000000003E-03
atom   8.9692790000000002E+00   2.1615989999999998E+00   7.1633469999999981E+00 Mg   0.0000000000000000E+00   0.0000000000000000E+00   6.8789999999999997E-03  -4.8989999999999997E-03  -4.0369999999999998E-03
atom  -1.2273120000000022E+00   3.6917690000000003E+00   2.2792319999999981E+00 Mg   0.0000000000000000E+00   0.0000000000000000E+00   5.8799999999999998E-03  -2.6930000000000001E-03  -3.8530000000000001E-03
atom   2.1555679999999988E+00   1.3943150000000000E+00   6.8516169999999974E+00 Mg   0.0000000000000000E+00   0.0000000000000000E+00   2.8530000000000001E-03   4.9990000000000000E-03  -5.6340000000000001E-03
atom   4.9771309999999982E+00   3.8730549999999999E+00   1.2526659999999998E+00 Mg   0.0000000000000000E+00   0.0000000000000000E+00  -6.9400000000000000E-03  -2.6619999999999999E-03   9.2060000000000006E-03
atom   8.7445219999999964E+00   1.7151760000000000E+00   7.1110879999999996E+00 Mg   0.0000000000000000E+00   0.0000000000000000E+00  -2.2279999999999999E-03  -1.6200000000000001E-04  -7.5519999999999997E-03
atom  -2.6136720000000002E+00   8.0482169999999993E+00   1.3507669999999996E+00 Mg   0.0000000000000000E+00   0.0000000000000000E+00  -3.5160000000000000E-03   4.9470000000000000E-03   1.1284000000000001E-02
atom   4.4874099999999928E-01   6.8657190000000012E+00   6.3676479999999991E+00 Mg   0.0000000000000000E+00   0.0000000000000000E+00  -2.5279999999999999E-03   4.0650000000000000E-03  -1.0939999999999999E-03
atom   3.6569600000000011E+00   8.6372250000000008E+00   1.6769159999999983E+00 Mg   0.0000000000000000E+00   0.0000000000000000E+00  -9.5499999999999995E-03   1.0559000000000001E-02   1.8159999999999999E-03
atom   6.5040279999999999E+00   7.2666220000000008E+00   7.2108419999999969E+00 Mg   0.0000000000000000E+00   0.0000000000000000E+00   1.9449999999999999E-03   4.6299999999999996E-03  -6.7539999999999996E-03
atom  -3.4655500000000017E+00   9.1176270000000024E+00   2.5795169999999992E+00 Mg   0.0000000000000000E+00   0.0000000000000000E+00  -1.8840000000000000E-03   1.0200000000000001E-03  -6.3689999999999997E-03
atom  -1.4889700000000095E-01   7.0197450000000012E+00   6.6855069999999994E+00 Mg   0.0000000000000000E+00   0.0000000000000000E+00   1.0960000000000000E-03  -1.4800000000000000E-03   1.1811000000000000E-02
atom   2.8795050000000009E+00   9.2295700000000025E+00   1.8187749999999987E+00 Mg   0.0000000000000000E+00   0.0000000000000000E+00  -4.7800000000000002E-04  -2.9550000000000002E-03   3.2959999999999999E-03
atom   6.0477129999999990E+00   6.6103500000000013E+00   6.6520669999999997E+00 Mg   0.0000000000000000E+00   0.0000000000000000E+00  -4.4130000000000003E-03   7.2730000000000000E-03  -6.1100000000000000E-03
atom   5.9015700000000004E-01   2.8913510000000020E+00   1.1307079999999996E+00 Mg   0.0000000000000000E+00   0.0000000000000000E+00   5.1630000000000001E-03   3.6879999999999999E-03   7.6610000000000003E-03
atom   3.1104539999999998E+00   1.0496550000000020E+00   6.3414669999999980E+00 Mg   0.0000000000000000E+00   0.0000000000000000E+00   9.6720000000000000E-03  -5.8170000000000001E-03   5.3359999999999996E-03
atom   6.2769950000000003E+00   2.8082830000000021E+00   1.8211329999999999E+00 Mg   0.0000000000000000E+00   0.0000000000000000E+00   9.9799999999999993E-03  -7.8670000000000007E-03  -2.0240000000000002E-03
atom   9.1425340000000013E+00   1.1977820000000003E+00   7.0876129999999984E+00 Mg   0.0000000000000000E+00   0.0000000000000000E+00   3.6180000000000001E-03  -6.2740000000000001E-03  -4.8880000000000000E-03
atom  -4.3991000000000063E-01   2.9036510000000026E+00   1.7815180000000004E+00 Mg   0.0000000000000000E+00   0.0000000000000000E+00  -2.1480000000000002E-03   7.5400000000000000E-04   9.6699999999999998E-03
atom   4.3568630000000006E+00   1.1937000000000009E+00   7.1159400000000002E+00 Mg   0.0000000000000000E+00   0.0000000000000000E+00  -1.7979999999999999E-02  -1.6940000000000000E-03  -1.9700000000000000E-03
atom   6.4795959999999999E+00   3.2041710000000014E+00   2.2922789999999980E+00 Mg   0.0000000000000000E+00   0.0000000000000000E+00  -4.1409999999999997E-03   4.7080000000000004E-03   1.9000000000000001E-05
atom   9.5652410000000003E+00   6.0933000000000170E-01   7.1195269999999997E+00 Mg   0.0000000000000000E+00   0.0000000000000000E+00   3.4689999999999999E-03   2.1540000000000001E-03  -1.2550000000000000E-03
atom  -2.2522309999999988E+00   8.6014370000000007E+00   1.6689709999999989E+00 Mg   0.0000000000000000E+00   0.0000000000000000E+00  -6.2199999999999998E-03  -5.2729999999999999E-03   1.9223000000000001E-02
atom   6.3573800000000014E-01   6.1856890000000009E+00   6.5396679999999998E+00 Mg   0.0000000000000000E+00   0.0000000000000000E+00  -1.0323000000000001E-02   2.2460000000000002E-03  -2.3790000000000000E-03
atom   3.6121070000000008E+00   8.5617210000000021E+00   1.5012619999999983E+00 Mg   0.0000000000000000E+00   0.0000000000000000E+00  -3.7590000000000002E-03  -2.2959999999999999E-03   1.0297000000000001E-02
atom   6.2110370000000010E+00   6.0231950000000012E+00   6.1699479999999989E+00 Mg   0.0000000000000000E+00   0.0000000000000000E+00   2.8219999999999999E-03   1.0234999999999999E-02   1.2206000000000000E-02
atom  -3.8669910000000005E+00   8.0794530000000009E+00   1.8304039999999993E+00 Mg   0.0000000000000000E+00   0.0000000000000000E+00   5.4760000000000000E-03  -5.2899999999999996E-04   3.6040000000000000E-03
atom  -2.1627000000001492E-02   6.7075530000000025E+00   7.1130410000000008E+00 Mg   0.0000000000000000E+00   0.0000000000000000E+00  -9.3329999999999993E-03  -4.1790000000000004E-03  -6.7429999999999999E-03
atom   1.9362709999999987E+00   8.5494750000000010E+00   2.0617429999999999E+00 Mg   0.0000000000000000E+00   0.0000000000000000E+00  -2.6580000000000002E-03  -6.1310000000000002E-03   2.2380000000000000E-03
atom   6.0009989999999984E+00   7.1784480000000004E+00   6.9296679999999977E+00 Mg   0.0000000000000000E+00   0.0000000000000000E+00   5.8440000000000002E-03  -3.3860000000000001E-03  -7.7549999999999997E-03
energy  -5.6201186000000000E+01
charge   0.0000000000000000E+00
end
begin
comment  i =     1390, time =      695.000, E =       -55.8538607430
lattice   1.3635517000000000E+01   0.0000000000000000E+00   0.0000000000000000E+00
lattice  -6.8177589999999997E+00   1.1808704000000001E+01   0.0000000000000000E+00
lattice   0.0000000000000000E+00   0.0000000000000000E+00   1.0949748000000000E+01
atom  -1.9834739999999997E+00   5.4802469999999994E+00   3.7254580000000002E+00 Mg   0.0000000000000000E+00   0.0000000000000000E+00  -1.2770999999999999E-02  -3.3379999999999998E-03  -7.2099999999999996E-04
atom   8.7265500000000018E-01   1.0726899999999997E+00   9.7417840000000009E+00 Mg   0.0000000000000000E+00   0.0000000000000000E+00  -9.1280000000000007E-03   4.5800000000000002E-04  -9.0279999999999996E-03
atom   4.4008580000000013E+00   2.8905799999999999E+00   4.9652509999999994E+00 Mg   0.0000000000000000E+00   0.0000000000000000E+00   6.7500000000000004E-04  -2.5070000000000001E-03  -3.9979999999999998E-03
atom   9.0939700000000023E+00   4.4415159999999991E+00   8.1786270000000005E+00 Mg   0.0000000000000000E+00   0.0000000000000000E+00   1.1030000000000000E-03   1.1630000000000000E-03  -4.1729999999999996E-03
atom  -1.2994160000000021E+00   2.8825829999999995E+00   3.7560729999999998E+00 Mg   0.0000000000000000E+00   0.0000000000000000E+00  -2.1570000000000001E-03   1.1846000000000001E-02   8.2869999999999992E-03
atom   1.8576630000000027E+00   2.8596609999999996E+00   9.9048020000000001E+00 Mg   0.0000000000000000E+00   0.0000000000000000E+00  -9.0150000000000004E-03   1.3025999999999999E-02  -1.0940000000000000E-02
atom   4.0951450000000005E+00   5.2317199999999993E+00   1.0970249999999999E+00 Mg   0.0000000000000000E+00   0.0000000000000000E+00  -1.3642000000000000E-02   1.6780000000000000E-02   6.2820000000000003E-03
atom   4.2742739999999992E+00   1.7006479999999999E+00   5.3334169999999999E+00 Mg   0.0000000000000000E+00   0.0000000000000000E+00   2.6689999999999999E-03   8.3119999999999999E-03  -7.7720000000000003E-03
atom  -2.1437629999999990E+00   1.1360110000000001E+01   2.7378229999999997E+00 Mg   0.0000000000000000E+00   0.0000000000000000E+00   1.3653000000000000E-02  -1.8804000000000001E-02  -5.4050000000000001E-03
atom   2.0233070000000009E+00   7.5378649999999991E+00   7.0860690000000002E+00 Mg   0.0000000000000000E+00   0.0000000000000000E+00   8.7290000000000006E-03  -1.8209999999999999E-03   6.2540000000000000E-03
atom   5.1575170000000012E+00   1.0830865999999999E+01   2.2753309999999995E+00 Mg   0.0000000000000000E+00   0.0000000000000000E+00   2.8709999999999999E-03  -3.5530000000000002E-03   5.4500000000000002E-04
atom   6.9639740000000003E+00   1.0012331999999999E+01   9.2787279999999974E+00 Mg   0.0000000000000000E+00   0.0000000000000000E+00  -1.9262999999999999E-02   4.9659999999999999E-03  -1.2024000000000000E-02
atom  -1.4707520000000003E+00   9.3488939999999996E+00   2.3477969999999999E+00 Mg   0.0000000000000000E+00   0.0000000000000000E+00   1.0914999999999999E-02   1.1773000000000000E-02   1.2076000000000000E-02
atom  -1.3671559999999972E+00   1.0715445999999998E+01   9.2613979999999980E+00 Mg   0.0000000000000000E+00   0.0000000000000000E+00   1.7285999999999999E-02   8.1390000000000004E-03  -2.2230000000000001E-03
atom   1.1555664000000002E+01   2.6112399999999797E-01   2.1503250000000000E+00 Mg   0.0000000000000000E+00   0.0000000000000000E+00  -1.1221999999999999E-02  -1.2995000000000000E-02  -3.2469999999999999E-03
atom   3.0022949999999988E+00   8.0318419999999993E+00   6.3961870000000003E+00 Mg   0.0000000000000000E+00   0.0000000000000000E+00   5.1229999999999999E-03  -2.3000000000000000E-03   2.0260000000000000E-03
atom   4.2586310000000012E+00   4.4659869999999975E+00   4.9685689999999996E+00 Mg   0.0000000000000000E+00   0.0000000000000000E+00  -6.3249999999999999E-03   7.3780000000000000E-03   7.5820000000000002E-03
atom  -2.1128549999999993E+00   1.0740848000000000E+01   8.2439210000000003E+00 Mg   0.0000000000000000E+00   0.0000000000000000E+00  -1.4697000000000000E-02   1.0009000000000001E-02   5.3629999999999997E-03
atom   8.7574280000000009E+00   3.1630909999999992E+00   1.1566359999999998E+00 Mg   0.0000000000000000E+00   0.0000000000000000E+00   1.1180000000000001E-03   1.5147000000000001E-02  -8.1209999999999997E-03
atom   1.0030307000000001E+01   2.3435869999999985E+00   6.8085469999999990E+00 Mg   0.0000000000000000E+00   0.0000000000000000E+00   6.0899999999999995E-04  -2.4022000000000002E-02   3.9100000000000003E-03
atom  -1.4261699999999750E-01   8.0574999999999957E+00   2.1627360000000002E+00 Mg   0.0000000000000000E+00   0.0000000000000000E+00  -1.6530000000000000E-02  -6.1279999999999998E-03  -2.0720000000000001E-03
atom   2.4727570000000010E+00   4.3012929999999985E+00   4.4089119999999999E+00 Mg   0.0000000000000000E+00   0.0000000000000000E+00   6.9230000000000003E-03  -2.4549000000000001E-02   9.7230000000000007E-03
atom   9.0945920000000005E+00   7.4133469999999981E+00   4.4802709999999992E+00 Mg   0.0000000000000000E+00   0.0000000000000000E+00   9.5399999999999999E-03  -3.5270000000000002E-03   1.0841999999999999E-02
atom   1.1151584999999997E+01   2.9374119999999992E+00   7.4040109999999988E+00 Mg   0.0000000000000000E+00   0.0000000000000000E+00   3.2360000000000002E-03  -5.5230000000000001E-03   1.0370000000000001E-02
atom   6.1505510000000037E+00   1.0024320999999997E+01   3.3739469999999998E+00 Mg   0.0000000000000000E+00   0.0000000000000000E+00   1.1500000000000000E-04   1.1960999999999999E-02   3.2299999999999998E-03
atom   1.3141370000000028E+00   9.4541389999999961E+00   8.2271549999999998E+00 Mg   0.0000000000000000E+00   0.0000000000000000E+00  -2.7190000000000001E-03  -7.9270000000000000E-03  -1.6548000000000000E-02
atom   3.1456160000000022E+00   9.1437819999999981E+00   1.3298969999999999E+00 Mg   0.0000000000000000E+00   0.0000000000000000E+00  -7.0439999999999999E-03   1.1080000000000000E-03   4.4429999999999999E-03
atom   9.1375180000000018E+00   7.1721079999999979E+00   6.5091950000000001E+00 Mg   0.0000000000000000E+00   0.0000000000000000E+00  -8.9099999999999995E-03   2.7744999999999999E-02  -6.3470000000000002E-03
atom  -4.9626869999999972E+00   1.0412728999999999E+01   1.2084600000000000E-01 Mg   0.0000000000000000E+00   0.0000000000000000E+00   1.4423999999999999E-02  -1.1624000000000001E-02  -6.9639999999999997E-03
atom   1.1349810000000031E+00   8.3523349999999947E+00   8.0456430000000001E+00 Mg   0.0000000000000000E+00   0.0000000000000000E+00  -4.9600000000000002E-04   5.2560000000000003E-03   1.2834000000000000E-02
atom   4.2601730000000018E+00   5.3840629999999967E+00   1.0155237000000000E+01 Mg   0.0000000000000000E+00   0.0000000000000000E+00   8.0219999999999996E-03  -4.9709999999999997E-03   3.7151000000000003E-02
atom   5.6185229999999997E+00   5.3337719999999971E+00   9.5303289999999983E+00 Mg   0.0000000000000000E+00   0.0000000000000000E+00  -2.2380000000000000E-03  -5.0910000000000000E-03  -5.8100000000000003E-04
atom   5.3233600000000003E-01   8.5777399999999993E-01   4.7459739999999986E+00 Mg   0.0000000000000000E+00   0.0000000000000000E+00   2.8800000000000001E-04   4.2160000000000001E-03   5.5090000000000000E-03
atom  -3.2762480000000007E+00   1.1718242000000002E+01   9.3669739999999972E+00 Mg   0.0000000000000000E+00   0.0000000000000000E+00  -4.2150000000000000E-03   1.0174000000000001E-02   2.9670000000000000E-03
atom   5.1412300000000002E+00   2.5153409999999998E+00   2.1377149999999991E+00 Mg   0.0000000000000000E+00   0.0000000000000000E+00   7.1750000000000000E-03   1.1127000000000000E-02  -3.4180000000000000E-03
atom   4.3797099999999978E-01   1.0234573000000001E+01   5.5096300000000005E+00 Mg   0.0000000000000000E+00   0.0000000000000000E+00   1.1310000000000001E-03  -1.0434000000000001E-02   8.6000000000000000E-03
atom   1.0374922000000000E+01   2.2284799999999996E-01   1.4970479999999997E+00 Mg   0.0000000000000000E+00   0.0000000000000000E+00   1.5598000000000001E-02   7.5360000000000002E-03   2.7550000000000001E-03
atom   2.3745760000000007E+00   3.9435329999999991E+00   4.0257009999999998E+00 Mg   0.0000000000000000E+00   0.0000000000000000E+00   1.0129000000000001E-02  -3.4740000000000001E-03   7.6480000000000003E-03
atom   7.7567499999999994E+00   4.7735700000000003E+00   9.1519879999999976E+00 Mg   0.0000000000000000E+00   0.0000000000000000E+00   1.4999999999999999E-04  -1.5799999999999999E-04  -4.8999999999999998E-04
atom   6.8764510000000012E+00   1.5612319999999997E+00   8.5788849999999996E+00 Mg   0.0000000000000000E+00   0.0000000000000000E+00   1.4444000000000000E-02  -4.7679999999999997E-03  -1.4120000000000001E-02
atom  -8.9483699999999944E-01   7.8387599999999988E+00   2.4245599999999978E+00 Mg   0.0000000000000000E+00   0.0000000000000000E+00  -3.5070000000000001E-03  -1.6268999999999999E-02  -5.0509999999999999E-03
atom   1.5011670000000001E+00   6.0311209999999997E+00   9.2006660000000000E+00 Mg   0.0000000000000000E+00   0.0000000000000000E+00   3.4259999999999998E-03   9.3800000000000003E-04  -3.0890000000000002E-03
atom   4.5980630000000007E+00   8.4469080000000005E+00   4.0885589999999992E+00 Mg   0.0000000000000000E+00   0.0000000000000000E+00  -3.0390000000000000E-03  -2.7539999999999999E-03   7.3249999999999999E-03
atom   8.1422500000000007E+00   6.6435279999999990E+00   9.9715609999999995E+00 Mg   0.0000000000000000E+00   0.0000000000000000E+00  -1.0120000000000001E-02  -1.7068000000000000E-02  -8.9149999999999993E-03
atom  -4.1093609999999998E+00   7.3172499999999987E+00   2.0495539999999992E+00 Mg   0.0000000000000000E+00   0.0000000000000000E+00   1.7292999999999999E-02  -1.0619999999999999E-02   2.1815999999999999E-02
atom   1.1480460000000003E+01   2.9327889999999996E+00   6.7956120000000020E+00 Mg   0.0000000000000000E+00   0.0000000000000000E+00  -1.3924000000000001E-02  -1.2190000000000000E-03   1.9710000000000001E-03
atom   5.6408680000000020E+00   9.5838789999999996E+00   1.3243769999999986E+00 Mg   0.0000000000000000E+00   0.0000000000000000E+00  -1.0779000000000000E-02  -8.1049999999999994E-03  -9.0060000000000001E-03
atom   7.2080300000000026E+00   7.4550759999999991E+00   6.7492569999999974E+00 Mg   0.0000000000000000E+00   0.0000000000000000E+00  -5.7100000000000000E-04  -2.3140000000000001E-03   1.8660000000000000E-03
atom   1.0738940000000006E+00   1.9699659999999981E+00   4.5841259999999995E+00 Mg   0.0000000000000000E+00   0.0000000000000000E+00  -5.1679999999999999E-03   1.0062000000000000E-02  -6.9220000000000002E-03
atom   3.2624710000000010E+00   3.7423589999999973E+00   9.0420369999999988E+00 Mg   0.0000000000000000E+00   0.0000000000000000E+00   8.4220000000000007E-03   4.9690000000000003E-03   8.1740000000000007E-03
atom   8.4507480000000008E+00   7.7823899999999846E-01   1.6380359999999978E+00 Mg   0.0000000000000000E+00   0.0000000000000000E+00  -4.8650000000000004E-03   8.3899999999999999E-03  -6.2210000000000000E-03
atom  -9.4277299999999964E-01   1.1529608000000000E+01   6.5595049999999997E+00 Mg   0.0000000000000000E+00   0.0000000000000000E+00   1.1356000000000000E-02  -1.5240000000000000E-03   9.3939999999999996E-03
atom  -3.9620600000000050E-01   3.2372389999999971E+00   9.0600499999999884E-01 Mg   0.0000000000000000E+00   0.0000000000000000E+00   1.4212000000000001E-02   1.3206000000000001E-02   8.8599999999999996E-04
atom   1.7294069999999990E+00   5.6467399999999923E-01   6.2845679999999993E+00 Mg   0.0000000000000000E+00   0.0000000000000000E+00   3.4589999999999998E-03  -2.1779999999999998E-03  -2.6699999999999998E-04
atom   7.0880039999999989E+00   2.2144499999999976E+00   3.6941839999999986E+00 Mg   0.0000000000000000E+00   0.0000000000000000E+00   1.2766000000000000E-02  -2.1495000000000000E-02  -3.0910000000000000E-03
atom   5.0818199999999991E-01   8.1415269999999982E+00   6.9763199999999985E+00 Mg   0.0000000000000000E+00   0.0000000000000000E+00  -1.3999999999999999E-04   1.1794000000000001E-02  -5.1690000000000000E-03
atom  -1.8724869999999980E+00   6.7778599999999960E+00   1.1832089999999997E+00 Mg   0.0000000000000000E+00   0.0000000000000000E+00   4.3759999999999997E-03  -2.1240000000000000E-03   6.2810000000000001E-03
atom  -1.8195230000000007E+00   4.9430709999999971E+00   9.3910949999999982E+00 Mg   0.0000000000000000E+00   0.0000000000000000E+00  -1.2888999999999999E-02   2.1760000000000000E-03  -1.2522999999999999E-02
atom   4.7179710000000004E+00   5.0502960000000003E+00   2.0197500000000093E-01 Mg   0.0000000000000000E+00   0.0000000000000000E+00  -7.1590000000000004E-03  -5.2969999999999996E-03  -7.7619999999999998E-03
atom   6.7206940000000008E+00   6.4963509999999971E+00   5.4529390000000006E+00 Mg   0.0000000000000000E+00   0.0000000000000000E+00   1.0449999999999999E-03  -8.7000000000000001E-05   9.4100000000000000E-04
atom  -3.6051799999999994E+00   8.4982809999999986E+00   9.6708100000000008E-01 Mg   0.0000000000000000E+00   0.0000000000000000E+00   6.4159999999999998E-03  -1.0501000000000000E-02   1.1554999999999999E-02
atom  -1.0221950000000011E+00   5.9611189999999974E+00   6.6830929999999986E+00 Mg   0.0000000000000000E+00   0.0000000000000000E+00  -8.7440000000000000E-03   3.1040000000000000E-03  -6.9670000000000001E-03
atom   1.4229980000000020E+00   1.1791866999999996E+01   2.8838439999999990E+00 Mg   0.0000000000000000E+00   0.0000000000000000E+00  -5.6880000000000003E-03  -4.4850000000000003E-03  -5.2560000000000003E-03
atom   4.3035470000000000E+00   6.3114979999999958E+00   4.4245029999999987E+00 Mg   0.0000000000000000E+00   0.0000000000000000E+00  -1.1731999999999999E-02   2.0795999999999999E-02  -4.0174000000000001E-02
energy  -5.5853861000000002E+01
charge   0.0000000000000000E+00
end
begin
comment  i =     1600, time =      800.000, E =       -56.3652069117
lattice   1.2823368000000000E+01   0.0000000000000000E+00   0.0000000000000000E+00
lattice  -6.4116840000000002E+00   1.1105363000000001E+01   0.0000000000000000E+00
lattice   0.0000000000000000E+00   0.0000000000000000E+00   1.0297567000000001E+01
atom  -6.3080000000000261E-02   3.5597919999999994E+00   2.4437340000000001E+00 Mg   0.0000000000000000E+00   0.0000000000000000E+00   1.7760000000000000E-03  -1.2030000000000001E-03  -8.5200000000000000E-04
atom   2.7003089999999994E+00   1.5312929999999996E+00   7.1578399999999993E+00 Mg   0.0000000000000000E+00   0.0000000000000000E+00   4.1820000000000000E-03   3.9870000000000001E-03  -1.0240000000000000E-03
atom   5.9117579999999990E+00   3.4286439999999989E+00   2.1242880000000000E+00 Mg   0.0000000000000000E+00   0.0000000000000000E+00   1.1349999999999999E-03  -1.6600000000000000E-03   4.9290000000000002E-03
atom   8.8405249999999977E+00   1.7290589999999997E+00   7.2078189999999998E+00 Mg   0.0000000000000000E+00   0.0000000000000000E+00   2.2209999999999999E-03   2.1710000000000002E-03  -6.1100000000000000E-04
atom  -6.3678800000000313E-01   3.4584579999999994E+00   2.4162530000000002E+00 Mg   0.0000000000000000E+00   0.0000000000000000E+00  -1.3920000000000000E-03   5.4299999999999997E-04  -2.3300000000000000E-04
atom   2.1536029999999977E+00   1.7133499999999997E+00   7.4160859999999991E+00 Mg   0.0000000000000000E+00   0.0000000000000000E+00   4.9299999999999995E-04   2.3720000000000000E-03  -1.6899999999999999E-04
atom   5.3709629999999926E+00   3.4530849999999993E+00   2.5447250000000001E+00 Mg   0.0000000000000000E+00   0.0000000000000000E+00  -4.5600000000000003E-04   2.5409999999999999E-03  -1.6470000000000000E-03
atom   8.1528709999999958E+00   1.7024509999999997E+00   7.4105080000000001E+00 Mg   0.0000000000000000E+00   0.0000000000000000E+00   1.9090000000000001E-03   1.6220000000000000E-03  -1.2190000000000000E-03
atom  -2.7868129999999995E+00   8.7332089999999987E+00   2.3991780000000000E+00 Mg   0.0000000000000000E+00   0.0000000000000000E+00  -3.1140000000000000E-03  -1.1490000000000001E-03   1.3489999999999999E-03
atom   3.6091000000000290E-02   6.9121149999999991E+00   7.4518019999999989E+00 Mg   0.0000000000000000E+00   0.0000000000000000E+00  -5.4000000000000001E-04   7.2199999999999999E-04  -4.6810000000000003E-03