begin
comment i = 11900, time = 5950.000, E = -56.2083254060
lattice   1.3064681000000000E+01   0.0000000000000000E+00   0.0000000000000000E+00
lattice  -6.5323409999999997E+00   1.1314346000000000E+01   0.0000000000000000E+00
lattice   0.0000000000000000E+00   0.0000000000000000E+00   1.0491349000000000E+01
atom   7.7196999999999752E-02   3.9857029999999996E+00   2.6868780000000001E+00 Mg   0.0000000000000000E+00   0.0000000000000000E+00   3.4099999999999999E-04  -8.0630000000000007E-03  -6.3210000000000002E-03
atom   3.4822249999999988E+00   1.9681660000000001E+00   7.4601529999999991E+00 Mg   0.0000000000000000E+00   0.0000000000000000E+00  -1.6680000000000000E-03  -5.5859999999999998E-03  -3.7759999999999998E-03
atom   6.2163909999999980E+00   3.6585149999999995E+00   2.0547140000000002E+00 Mg   0.0000000000000000E+00   0.0000000000000000E+00   4.8000000000000001E-05   2.7789999999999998E-03   1.1100000000000000E-04
atom   9.2792609999999982E+00   2.4377149999999999E+00   6.9895249999999995E+00 Mg   0.0000000000000000E+00   0.0000000000000000E+00   2.7420000000000001E-03  -5.1130000000000004E-03   4.7380000000000000E-03
atom  -2.5346300000000194E-01   3.8635380000000001E+00   2.4796169999999997E+00 Mg   0.0000000000000000E+00   0.0000000000000000E+00  -3.6760000000000000E-03  -2.1779999999999998E-03  -5.5059999999999996E-03
atom   1.9761889999999951E+00   1.7063489999999997E+00   7.5118589999999994E+00 Mg   0.0000000000000000E+00   0.0000000000000000E+00   8.9490000000000004E-03   3.0060000000000000E-03   4.3550000000000004E-03
atom   5.5758469999999942E+00   4.0809400000000000E+00   2.5452369999999997E+00 Mg   0.0000000000000000E+00   0.0000000000000000E+00  -2.8200000000000002E-04  -2.5829999999999998E-03  -6.4910000000000002E-03
atom   8.5460539999999927E+00   1.9933200000000000E+00   7.0367359999999994E+00 Mg   0.0000000000000000E+00   0.0000000000000000E+00   3.9050000000000001E-03  -1.6775000000000002E-02   4.1669999999999997E-03
atom  -2.4267080000000010E+00   9.1102380000000007E+00   2.1433289999999996E+00 Mg   0.0000000000000000E+00   0.0000000000000000E+00  -1.5240000000000000E-02   2.5509999999999999E-03   6.7790000000000003E-03
atom   2.7831899999999943E-01   7.0815359999999989E+00   7.4042050000000001E+00 Mg   0.0000000000000000E+00   0.0000000000000000E+00  -1.5620000000000000E-03   1.1340000000000000E-03  -3.9599999999999998E-04
atom   3.0625309999999986E+00   8.9543429999999997E+00   2.6639569999999999E+00 Mg   0.0000000000000000E+00   0.0000000000000000E+00   1.0919999999999999E-02   1.2489999999999999E-03  -5.7730000000000004E-03
atom   6.5586969999999978E+00   6.9800059999999995E+00   7.9531729999999996E+00 Mg   0.0000000000000000E+00   0.0000000000000000E+00  -5.2240000000000003E-03   1.3953000000000000E-02  -3.9430000000000003E-03
atom  -3.9558230000000041E+00   8.9176979999999997E+00   2.5496579999999995E+00 Mg   0.0000000000000000E+00   0.0000000000000000E+00  -1.6320000000000000E-03   1.1349999999999999E-03  -9.6100000000000005E-04
atom  -4.6501400000000426E-01   7.6296920000000004E+00   7.0635950000000003E+00 Mg   0.0000000000000000E+00   0.0000000000000000E+00  -1.0408000000000001E-02  -1.5730999999999998E-02   1.5150000000000001E-03
atom   2.1210739999999935E+00   9.3184310000000004E+00   2.2803390000000001E+00 Mg   0.0000000000000000E+00   0.0000000000000000E+00   4.5669999999999999E-03  -1.8469999999999999E-03  -1.2111000000000000E-02
atom   6.1220689999999944E+00   6.6164129999999997E+00   7.4654869999999995E+00 Mg   0.0000000000000000E+00   0.0000000000000000E+00  -8.3689999999999997E-03   1.3669000000000001E-02   4.4570000000000000E-03
atom   2.8691299999999753E-01   2.8799440000000009E+00   2.2983760000000002E+00 Mg   0.0000000000000000E+00   0.0000000000000000E+00   1.0100000000000000E-03   1.0200000000000001E-03  -8.2539999999999992E-03
atom   3.2066709999999978E+00   7.8517300000000090E-01   7.6449550000000004E+00 Mg   0.0000000000000000E+00   0.0000000000000000E+00  -2.5700000000000001E-04   2.5300000000000002E-04  -2.7510000000000000E-03
atom   6.7868669999999982E+00   3.3468920000000009E+00   3.2091439999999998E+00 Mg   0.0000000000000000E+00   0.0000000000000000E+00  -6.9010000000000000E-03   1.6180000000000001E-03  -9.6970000000000008E-03
atom   9.6587049999999977E+00   1.1263589999999997E+00   7.2740639999999992E+00 Mg   0.0000000000000000E+00   0.0000000000000000E+00   5.0369999999999998E-03  -2.6559999999999999E-03   4.8370000000000002E-03
atom  -3.1976800000000366E-01   3.0975279999999978E+00   1.7747549999999999E+00 Mg   0.0000000000000000E+00   0.0000000000000000E+00  -5.8630000000000002E-03  -9.6670000000000002E-03   1.2553999999999999E-02
atom   2.4871719999999957E+00   1.2964059999999982E+00   7.7218499999999990E+00 Mg   0.0000000000000000E+00   0.0000000000000000E+00   5.5669999999999999E-03  -1.1601999999999999E-02   1.3300000000000000E-03
atom   5.3664579999999953E+00   3.1540959999999982E+00   3.1661830000000002E+00 Mg   0.0000000000000000E+00   0.0000000000000000E+00   7.5519999999999997E-03  -7.2610000000000001E-03  -5.6820000000000004E-03
atom   8.7264469999999950E+00   7.0483400000000063E-01   7.1201059999999998E+00 Mg   0.0000000000000000E+00   0.0000000000000000E+00   8.4159999999999999E-03   1.7401000000000000E-02   7.0460000000000002E-03
atom  -2.3274670000000004E+00   8.5433820000000011E+00   2.6116180000000000E+00 Mg   0.0000000000000000E+00   0.0000000000000000E+00  -1.3030999999999999E-02  -4.4140000000000004E-03  -1.9150000000000000E-03
atom   2.8858499999999826E-01   5.8878479999999982E+00   7.4516329999999993E+00 Mg   0.0000000000000000E+00   0.0000000000000000E+00  -2.5660000000000001E-03   5.0780000000000000E-03   2.4830000000000000E-03
atom   3.0975129999999971E+00   8.7740159999999996E+00   3.0640039999999997E+00 Mg   0.0000000000000000E+00   0.0000000000000000E+00   1.2029000000000000E-02  -9.6659999999999992E-03  -9.6930000000000002E-03
atom   6.3094489999999972E+00   6.3552189999999982E+00   8.0629399999999976E+00 Mg   0.0000000000000000E+00   0.0000000000000000E+00   3.9129999999999998E-03   5.5199999999999997E-04  -6.1450000000000003E-03
atom  -2.9493900000000042E+00   8.6017620000000008E+00   2.8456220000000001E+00 Mg   0.0000000000000000E+00   0.0000000000000000E+00  -6.2290000000000002E-03  -1.5790000000000001E-03  -6.6420000000000003E-03
atom   4.0982099999999627E-01   6.1778440000000012E+00   6.8542379999999996E+00 Mg   0.0000000000000000E+00   0.0000000000000000E+00  -1.5653000000000000E-02   5.0480000000000004E-03   8.5150000000000000E-03
atom   2.6927069999999964E+00   7.8188759999999986E+00   2.3487469999999999E+00 Mg   0.0000000000000000E+00   0.0000000000000000E+00   6.2529999999999999E-03   1.7045999999999999E-02  -4.5120000000000004E-03
atom   5.8234579999999951E+00   6.3845559999999990E+00   7.9004009999999987E+00 Mg   0.0000000000000000E+00   0.0000000000000000E+00   5.7340000000000004E-03   1.5709999999999999E-03  -5.4500000000000000E-03
atom  -4.8899000000000477E-02   3.2596379999999998E+00   1.4649710000000000E+00 Mg   0.0000000000000000E+00   0.0000000000000000E+00   5.6899999999999995E-04   9.4579999999999994E-03   4.0679999999999996E-03
atom   2.4713109999999996E+00   1.9555739999999999E+00   6.8588449999999970E+00 Mg   0.0000000000000000E+00   0.0000000000000000E+00   1.0884000000000000E-02  -6.8479999999999999E-03  -1.2999999999999999E-04
atom   6.1372869999999979E+00   3.6242429999999999E+00   2.0860149999999984E+00 Mg   0.0000000000000000E+00   0.0000000000000000E+00  -1.8360000000000000E-03  -5.0200000000000002E-03  -1.6639999999999999E-03
atom   9.9461189999999995E+00   1.0961730000000001E+00   6.9232389999999988E+00 Mg   0.0000000000000000E+00   0.0000000000000000E+00  -5.9990000000000000E-03   1.2213999999999999E-02  -1.0549999999999999E-03
atom  -1.1199280000000009E+00   3.4136629999999997E+00   1.5026950000000003E+00 Mg   0.0000000000000000E+00   0.0000000000000000E+00   5.2570000000000004E-03   9.1240000000000002E-03   5.0010000000000002E-03
atom   2.6044559999999946E+00   1.6259220000000001E+00   6.6551209999999994E+00 Mg   0.0000000000000000E+00   0.0000000000000000E+00   6.3500000000000004E-04   2.2590000000000002E-03   9.7409999999999997E-03
atom   6.0408069999999974E+00   3.4033589999999996E+00   2.3804999999999983E+00 Mg   0.0000000000000000E+00   0.0000000000000000E+00  -9.1819999999999992E-03   6.1050000000000002E-03  -7.8030000000000000E-03
atom   8.6923739999999956E+00   1.4595410000000000E+00   7.1218679999999974E+00 Mg   0.0000000000000000E+00   0.0000000000000000E+00  -5.1310000000000001E-03  -1.4059999999999999E-03  -4.8299999999999998E-04
atom  -2.9421070000000005E+00   8.9808199999999996E+00   2.1026170000000000E+00 Mg   0.0000000000000000E+00   0.0000000000000000E+00  -6.6379999999999998E-03  -6.3660000000000001E-03  -3.3899999999999998E-03
atom  -1.3751900000000056E-01   6.9592120000000000E+00   6.7526999999999990E+00 Mg   0.0000000000000000E+00   0.0000000000000000E+00  -1.9500000000000000E-04   5.5999999999999999E-05  -1.4200000000000000E-03
atom   2.6963729999999990E+00   8.6635340000000003E+00   1.7517379999999987E+00 Mg   0.0000000000000000E+00   0.0000000000000000E+00   8.3590000000000001E-03   3.3950000000000000E-03   3.1560000000000000E-03
atom   5.9151819999999979E+00   6.8113440000000001E+00   6.3847120000000004E+00 Mg   0.0000000000000000E+00   0.0000000000000000E+00   1.6750000000000001E-03   7.5249999999999996E-03   1.1756000000000001E-02
atom  -3.3760050000000033E+00   9.2644760000000002E+00   2.1428880000000006E+00 Mg   0.0000000000000000E+00   0.0000000000000000E+00  -5.1809999999999998E-03  -9.0220000000000005E-03  -5.0130000000000001E-03
atom  -9.2385300000000337E-01   6.7493220000000003E+00   6.8277999999999990E+00 Mg   0.0000000000000000E+00   0.0000000000000000E+00   1.2470000000000001E-03   1.5499999999999999E-03  -2.4580000000000001E-03
atom   2.4640939999999967E+00   8.6487409999999993E+00   1.1076670000000006E+00 Mg   0.0000000000000000E+00   0.0000000000000000E+00   4.4359999999999998E-03  -1.4679999999999999E-03   1.3014000000000000E-02
atom   5.1339499999999942E+00   7.2224180000000002E+00   6.7776430000000012E+00 Mg   0.0000000000000000E+00   0.0000000000000000E+00   1.4980000000000000E-03   1.9160000000000000E-03   3.2209999999999999E-03
atom   3.1533499999999975E-01   3.1397420000000000E+00   2.4000300000000010E+00 Mg   0.0000000000000000E+00   0.0000000000000000E+00   8.0350000000000005E-03   2.1140000000000000E-03  -2.5193000000000000E-02
atom   3.9331489999999980E+00   1.1032370000000007E+00   6.8274800000000004E+00 Mg   0.0000000000000000E+00   0.0000000000000000E+00  -1.4029000000000000E-02   1.1930000000000000E-03   5.4169999999999999E-03
atom   6.4136909999999974E+00   2.5473149999999993E+00   1.8883079999999985E+00 Mg   0.0000000000000000E+00   0.0000000000000000E+00   2.0200000000000001E-03   7.7860000000000004E-03   3.1220000000000002E-03
atom   9.3341119999999975E+00   9.5546399999999787E-01   6.8411719999999976E+00 Mg   0.0000000000000000E+00   0.0000000000000000E+00   9.3939999999999996E-03  -7.8200000000000003E-04  -2.5810000000000000E-03
atom  -7.3544500000000212E-01   3.1724549999999976E+00   1.5518020000000003E+00 Mg   0.0000000000000000E+00   0.0000000000000000E+00  -2.7799999999999999E-03  -1.9500000000000000E-04   5.9140000000000000E-03
atom   2.6068579999999959E+00   7.9965500000000023E-01   6.9266730000000001E+00 Mg   0.0000000000000000E+00   0.0000000000000000E+00  -4.0999999999999999E-04   1.2999999999999999E-03   5.0359999999999997E-03
atom   4.9621209999999945E+00   3.1610579999999993E+00   2.4170350000000003E+00 Mg   0.0000000000000000E+00   0.0000000000000000E+00   8.1969999999999994E-03   6.2059999999999997E-03  -4.4809999999999997E-03
atom   8.9288209999999957E+00   1.3834699999999980E+00   6.1093669999999971E+00 Mg   0.0000000000000000E+00   0.0000000000000000E+00  -6.7440000000000000E-03  -1.0442000000000000E-02   2.0119999999999999E-02
atom  -3.1436270000000004E+00   8.5507289999999987E+00   1.7922480000000010E+00 Mg   0.0000000000000000E+00   0.0000000000000000E+00   7.8680000000000000E-03  -6.7380000000000001E-03   7.2030000000000002E-03
atom   4.3279699999999799E-01   6.8787670000000007E+00   6.4099150000000007E+00 Mg   0.0000000000000000E+00   0.0000000000000000E+00  -4.4749999999999998E-03  -5.5000000000000003E-04   1.0914000000000000E-02
atom   3.1260409999999976E+00   8.5793670000000013E+00   1.4820819999999990E+00 Mg   0.0000000000000000E+00   0.0000000000000000E+00  -3.0730000000000002E-03  -4.2640000000000004E-03   4.8849999999999996E-03
atom   6.3105779999999978E+00   6.2598829999999976E+00   7.3628459999999993E+00 Mg   0.0000000000000000E+00   0.0000000000000000E+00   7.1910000000000003E-03  -2.5880000000000000E-03   1.3380000000000000E-03
atom  -3.8082360000000017E+00   8.3734169999999981E+00   2.1293780000000009E+00 Mg   0.0000000000000000E+00   0.0000000000000000E+00   1.9400000000000001E-03  -4.6330000000000000E-03  -7.2999999999999996E-04
atom  -5.5732200000000331E-01   6.3417849999999971E+00   6.8367729999999991E+00 Mg   0.0000000000000000E+00   0.0000000000000000E+00   1.3720000000000000E-03   3.1210000000000001E-03  -1.3048000000000001E-02
atom   2.6401819999999936E+00   8.4659580000000005E+00   1.7316719999999985E+00 Mg   0.0000000000000000E+00   0.0000000000000000E+00  -5.9480000000000002E-03  -4.3290000000000004E-03   3.4830000000000000E-03
atom   5.9321079999999968E+00   6.0453959999999993E+00   7.5177469999999991E+00 Mg   0.0000000000000000E+00   0.0000000000000000E+00   2.6199999999999999E-03   4.9860000000000000E-03  -4.8120000000000003E-03
energy  -5.6208325000000002E+01
charge   0.0000000000000000E+00
end
begin
comment i = 1150, time = 575.000, E = -55.8829147985
lattice   1.3489195000000000E+01   0.0000000000000000E+00   0.0000000000000000E+00
lattice  -6.7445979999999999E+00   1.1681986000000000E+01   0.0000000000000000E+00
lattice   0.0000000000000000E+00   0.0000000000000000E+00   1.0832247000000001E+01
atom  -1.8728499999999999E+00   5.7590750000000002E+00   4.6047149999999997E+00 Mg   0.0000000000000000E+00   0.0000000000000000E+00  -4.4500000000000000E-03  -1.8447999999999999E-02   2.9550000000000002E-03
atom  -4.1028400000000004E-01   1.4351330000000000E+00   9.3934429999999995E+00 Mg   0.0000000000000000E+00   0.0000000000000000E+00   6.3540000000000003E-03   3.0400000000000002E-04  -1.0851000000000000E-02
atom   3.4245819999999996E+00   3.7860770000000001E+00   3.8052130000000002E+00 Mg   0.0000000000000000E+00   0.0000000000000000E+00  -3.3510999999999999E-02  -2.1371999999999999E-02  -1.3740000000000000E-03
atom   7.2123490000000006E+00   5.1228309999999997E+00   6.4056140000000008E+00 Mg   0.0000000000000000E+00   0.0000000000000000E+00   3.5727000000000002E-02   5.8659999999999997E-03   1.2945000000000000E-02
atom   1.2284500000000115E-01   3.3744350000000001E+00   4.2475969999999998E+00 Mg   0.0000000000000000E+00   0.0000000000000000E+00  -2.9092000000000000E-02  -1.4000000000000000E-05  -3.2460000000000002E-03
atom   6.9092500000000034E-01   4.5657079999999999E+00   9.6198680000000003E+00 Mg   0.0000000000000000E+00   0.0000000000000000E+00   3.5520000000000000E-03  -3.8449999999999999E-03  -3.4589999999999998E-03
atom   3.3013440000000003E+00   5.4735709999999997E+00   6.5209600000000001E-01 Mg   0.0000000000000000E+00   0.0000000000000000E+00   1.4940000000000000E-02  -4.0190000000000000E-03   6.6020000000000002E-03
atom   4.7224650000000015E+00   1.8464860000000001E+00   5.6354850000000001E+00 Mg   0.0000000000000000E+00   0.0000000000000000E+00   1.9476000000000000E-02   3.8630000000000001E-03  -3.6909999999999998E-03
atom  -8.5904799999999970E-01   1.0561245000000000E+01   2.7700440000000004E+00 Mg   0.0000000000000000E+00   0.0000000000000000E+00  -9.2699999999999998E-04   8.3669999999999994E-03  -7.2069999999999999E-03
atom   2.3875759999999997E+00   7.2023260000000002E+00   8.5459610000000001E+00 Mg   0.0000000000000000E+00   0.0000000000000000E+00  -1.2760000000000000E-03   5.9280000000000001E-03  -5.3280000000000003E-03
atom   5.3685330000000011E+00   1.0999775000000000E+01   1.6685989999999999E+00 Mg   0.0000000000000000E+00   0.0000000000000000E+00  -8.6070000000000001E-03  -2.7980000000000001E-03  -5.7050000000000000E-03
atom  -5.4721280000000005E+00   1.0133409000000000E+01   9.3961970000000008E+00 Mg   0.0000000000000000E+00   0.0000000000000000E+00  -1.5016000000000000E-02  -2.8660000000000001E-03   7.7520000000000002E-03
atom  -1.9383199999999976E+00   8.3663059999999998E+00   2.7459039999999999E+00 Mg   0.0000000000000000E+00   0.0000000000000000E+00   3.9779999999999998E-03  -8.7700000000000000E-03   1.2110000000000001E-03
atom  -2.8618599999999977E-01   1.0126957000000003E+01   8.1027319999999996E+00 Mg   0.0000000000000000E+00   0.0000000000000000E+00   1.2210000000000000E-02  -2.5430000000000001E-03   1.3879999999999999E-03
atom   3.9470920000000027E+00   1.1561344000000000E+01   1.3613410000000001E+00 Mg   0.0000000000000000E+00   0.0000000000000000E+00   9.2980000000000007E-03   5.4029999999999998E-03   1.5698000000000000E-02
atom   5.2511480000000006E+00   7.8554570000000012E+00   6.1566630000000009E+00 Mg   0.0000000000000000E+00   0.0000000000000000E+00  -2.3557000000000002E-02   1.7570000000000001E-03  -1.6057999999999999E-02
atom   4.0815169999999981E+00   4.6947590000000012E+00   5.1588609999999999E+00 Mg   0.0000000000000000E+00   0.0000000000000000E+00  -1.1849000000000000E-02  -2.2300000000000000E-04   2.7220000000000000E-03
atom  -3.5304240000000000E+00   1.0267420000000000E+01   9.4170459999999991E+00 Mg   0.0000000000000000E+00   0.0000000000000000E+00   1.1230000000000000E-02   1.7198000000000001E-02  -2.7220000000000000E-03
atom   8.6566869999999998E+00   4.4979339999999981E+00   1.5818470000000002E+00 Mg   0.0000000000000000E+00   0.0000000000000000E+00  -5.8000000000000000E-04  -3.0890000000000002E-03  -4.0090000000000004E-03
atom   8.4442789999999999E+00   1.4973290000000010E+00   6.6756539999999998E+00 Mg   0.0000000000000000E+00   0.0000000000000000E+00   1.3879000000000001E-02   1.9780000000000002E-03   9.6109999999999998E-03
atom   2.5010899999999925E-01   6.8431320000000007E+00   1.7984920000000000E+00 Mg   0.0000000000000000E+00   0.0000000000000000E+00  -1.9605999999999998E-02   4.9109999999999996E-03   1.3280999999999999E-02
atom   2.7214250000000018E+00   1.0316270000000014E+00   4.7326680000000003E+00 Mg   0.0000000000000000E+00   0.0000000000000000E+00   3.1140000000000000E-03   2.6570000000000000E-02  -9.8999999999999994E-05
atom   8.5730170000000001E+00   5.6978280000000012E+00   3.6087310000000001E+00 Mg   0.0000000000000000E+00   0.0000000000000000E+00   9.4170000000000000E-03   3.9029999999999998E-03  -2.4710000000000001E-03
atom   1.0994642000000002E+01   2.2206009999999998E+00   8.2593479999999992E+00 Mg   0.0000000000000000E+00   0.0000000000000000E+00   1.2351000000000001E-02  -3.3370000000000001E-03  -3.9500000000000004E-03
atom   5.5184899999999990E+00   1.0031283000000000E+01   4.2510990000000000E+00 Mg   0.0000000000000000E+00   0.0000000000000000E+00   1.6438999999999999E-02   7.5209999999999999E-03  -1.5299999999999999E-02
atom   5.6791899999999795E-01   9.9163200000000025E+00   8.3734339999999996E+00 Mg   0.0000000000000000E+00   0.0000000000000000E+00  -7.4070000000000004E-03  -8.8140000000000007E-03  -5.6899999999999997E-03
atom   1.5950679999999995E+00   9.6374720000000007E+00   3.0931109999999999E+00 Mg   0.0000000000000000E+00   0.0000000000000000E+00   3.3040000000000001E-03   1.2689999999999999E-03  -1.1879000000000001E-02
atom   8.2683380000000000E+00   8.4413360000000033E+00   6.2890050000000004E+00 Mg   0.0000000000000000E+00   0.0000000000000000E+00  -5.4289999999999998E-03  -4.3620000000000004E-03  -9.7879999999999998E-03
atom  -5.1298230000000018E+00   9.7764520000000026E+00   9.8112080000000006E+00 Mg   0.0000000000000000E+00   0.0000000000000000E+00   3.9360000000000003E-03  -1.3611000000000000E-02   1.5547000000000000E-02
atom   1.3121870000000018E+00   8.1503870000000003E+00   8.1763960000000004E+00 Mg   0.0000000000000000E+00   0.0000000000000000E+00  -9.2079999999999992E-03  -1.1797999999999999E-02  -2.1389999999999998E-03
atom   4.4528629999999980E+00   5.3371940000000002E+00   1.0251087000000000E+01 Mg   0.0000000000000000E+00   0.0000000000000000E+00   1.2604000000000001E-02  -7.1630000000000001E-03  -1.1689000000000000E-02
atom   6.2963450000000005E+00   4.4795720000000010E+00   8.4225790000000007E+00 Mg   0.0000000000000000E+00   0.0000000000000000E+00  -1.5298000000000001E-02   3.8260000000000000E-03   4.6389999999999999E-03
atom   7.1582999999999800E-02   2.5208050000000002E+00   3.7143029999999997E+00 Mg   0.0000000000000000E+00   0.0000000000000000E+00   9.0700000000000004E-04  -6.4099999999999999E-03   1.2651000000000001E-02
atom  -4.4826319999999997E+00   1.1582376999999999E+01   8.4721910000000005E+00 Mg   0.0000000000000000E+00   0.0000000000000000E+00   4.3949999999999996E-03  -3.6600000000000001E-04   5.4279999999999997E-03
atom   5.6830650000000009E+00   3.4828000000000001E+00   1.3369499999999996E+00 Mg   0.0000000000000000E+00   0.0000000000000000E+00  -4.6950000000000004E-03  -7.8799999999999996E-04   3.3289999999999999E-03
atom   1.1769680000000018E+00   1.0892823999999999E+01   6.9322899999999992E+00 Mg   0.0000000000000000E+00   0.0000000000000000E+00  -9.7389999999999994E-03  -5.5059999999999996E-03   1.7510000000000000E-03
atom   1.0772912000000002E+01   9.6595100000000000E-01   1.2219269999999998E+00 Mg   0.0000000000000000E+00   0.0000000000000000E+00  -1.3617000000000001E-02   5.8539999999999998E-03   8.3429999999999997E-03
atom   3.8990160000000023E+00   2.6830539999999998E+00   5.7558369999999988E+00 Mg   0.0000000000000000E+00   0.0000000000000000E+00  -1.2700000000000001E-03   1.3339000000000000E-02  -7.4539999999999997E-03
atom   7.0313820000000007E+00   5.0662469999999997E+00   1.0472268000000000E+01 Mg   0.0000000000000000E+00   0.0000000000000000E+00   6.0580000000000000E-03  -1.7687999999999999E-02   4.4780000000000002E-03
atom   8.6213049999999996E+00   9.6704199999999996E-01   8.3089790000000008E+00 Mg   0.0000000000000000E+00   0.0000000000000000E+00  -5.9829999999999996E-03   2.8460000000000000E-03   2.0639999999999999E-03
atom  -4.1704400000000053E-01   7.8350860000000013E+00   2.3961200000000011E+00 Mg   0.0000000000000000E+00   0.0000000000000000E+00  -3.4320000000000002E-03   8.0599999999999997E-04   1.5388000000000001E-02
atom   1.1879390000000001E+00   6.1208590000000003E+00   8.8181209999999997E+00 Mg   0.0000000000000000E+00   0.0000000000000000E+00   7.0369999999999999E-03   5.9599999999999996E-04  -4.7340000000000004E-03
atom   5.0754809999999999E+00   8.1571840000000027E+00   4.1545729999999992E+00 Mg   0.0000000000000000E+00   0.0000000000000000E+00  -5.9259999999999998E-03   1.2910000000000000E-03   8.0820000000000006E-03
atom   6.9715389999999999E+00   5.4240930000000001E+00   9.9925330000000017E+00 Mg   0.0000000000000000E+00   0.0000000000000000E+00   7.3660000000000002E-03  -1.1100000000000000E-04  -1.0945000000000000E-02
atom  -2.8295409999999976E+00   7.0605529999999996E+00   2.6926740000000016E+00 Mg   0.0000000000000000E+00   0.0000000000000000E+00   5.0439999999999999E-03   1.5310000000000000E-03   2.9470000000000000E-03
atom   1.1119732000000003E+01   3.1563210000000002E+00   6.8980630000000005E+00 Mg   0.0000000000000000E+00   0.0000000000000000E+00   9.7330000000000003E-03   2.4017000000000000E-02  -2.7700000000000001E-04
atom   3.3301329999999996E+00   7.6651730000000002E+00   2.6345679999999998E+00 Mg   0.0000000000000000E+00   0.0000000000000000E+00   1.4620000000000000E-03   7.3179999999999999E-03   6.0140000000000002E-03
atom   8.3145769999999999E+00   8.1519929999999992E+00   7.7452380000000005E+00 Mg   0.0000000000000000E+00   0.0000000000000000E+00  -1.2178000000000000E-02   2.9169999999999999E-03  -3.3960000000000001E-03
atom   1.8699379999999988E+00   1.5224420000000003E+00   4.0127039999999994E+00 Mg   0.0000000000000000E+00   0.0000000000000000E+00   4.1489999999999999E-03  -6.5529999999999998E-03  -1.9210000000000000E-03
atom   3.3531170000000001E+00   3.3280399999999997E+00   9.6008020000000016E+00 Mg   0.0000000000000000E+00   0.0000000000000000E+00  -1.7420000000000001E-03  -1.4840000000000001E-03  -4.4920000000000003E-03
atom   7.3849549999999988E+00   1.4289730000000009E+00   1.3978550000000005E+00 Mg   0.0000000000000000E+00   0.0000000000000000E+00   9.3329999999999993E-03   6.4209999999999996E-03  -1.4740000000000000E-03
atom   8.6639300000000006E+00   8.4235600000000133E-01   6.6907950000000005E+00 Mg   0.0000000000000000E+00   0.0000000000000000E+00  -5.9080000000000001E-03  -7.3119999999999999E-03   7.5969999999999996E-03
atom   4.7834399999999827E-01   3.7896670000000010E+00   5.2391699999999919E-01 Mg   0.0000000000000000E+00   0.0000000000000000E+00  -9.3469999999999994E-03  -1.5260000000000000E-03  -7.5989999999999999E-03
atom   1.7482600000000017E+00   7.4396400000000151E-01   4.9899589999999989E+00 Mg   0.0000000000000000E+00   0.0000000000000000E+00   9.1940000000000008E-03   3.5900000000000000E-04   7.4500000000000000E-03
atom   8.3273760000000010E+00   1.4168710000000000E+00   3.0176989999999990E+00 Mg   0.0000000000000000E+00   0.0000000000000000E+00  -1.3746000000000000E-02   3.7980000000000002E-03  -5.4879999999999998E-03
atom   7.4446400000000046E-01   9.2096180000000007E+00   7.6429089999999986E+00 Mg   0.0000000000000000E+00   0.0000000000000000E+00  -1.4708000000000001E-02   1.6100000000000001E-03  -2.4386000000000001E-02
atom  -1.3233280000000003E+00   7.4004679999999983E+00   2.9263729999999994E+00 Mg   0.0000000000000000E+00   0.0000000000000000E+00   9.4799999999999995E-04   5.0000000000000001E-03  -1.4199000000000000E-02
atom  -1.6386500000000019E+00   4.8111270000000026E+00   7.6649069999999986E+00 Mg   0.0000000000000000E+00   0.0000000000000000E+00  -3.6610000000000002E-03  -3.3900000000000000E-04   5.8929999999999998E-03
atom   3.9259139999999997E+00   5.7858789999999987E+00   1.0554933000000000E+01 Mg   0.0000000000000000E+00   0.0000000000000000E+00  -6.5389999999999997E-03  -7.5960000000000003E-03  -5.6449999999999998E-03
atom   5.4411389999999997E+00   5.7359780000000011E+00   4.9474279999999986E+00 Mg   0.0000000000000000E+00   0.0000000000000000E+00   1.0043000000000000E-02   1.0770000000000000E-03   6.7159999999999997E-03
atom  -4.6270510000000007E+00   8.3248020000000000E+00   7.9260600000000059E-01 Mg   0.0000000000000000E+00   0.0000000000000000E+00   1.5341000000000000E-02  -1.4611000000000001E-02   6.1619999999999999E-03
atom  -1.4459990000000016E+00   5.5166870000000001E+00   5.6772070000000028E+00 Mg   0.0000000000000000E+00   0.0000000000000000E+00  -2.1530000000000000E-03   6.8199999999999997E-03   6.0590000000000001E-03
atom   7.1227999999998390E-02   1.0202530000000003E+01   2.1774689999999981E+00 Mg   0.0000000000000000E+00   0.0000000000000000E+00   1.7184999999999999E-02   1.1100000000000001E-03   3.3599999999999998E-04
atom   4.8643390000000020E+00   6.8459859999999999E+00   2.5603409999999993E+00 Mg   0.0000000000000000E+00   0.0000000000000000E+00   4.4999999999999999E-04   1.9880000000000002E-03   1.3625999999999999E-02
energy  -5.5882914999999997E+01
charge   0.0000000000000000E+00
end
begin
comment i = 970, time = 485.000, E = -56.1741116575
lattice   1.3170612999999999E+01   0.0000000000000000E+00   0.0000000000000000E+00
lattice  -6.5853060000000001E+00   1.1406084999999999E+01   0.0000000000000000E+00
lattice   0.0000000000000000E+00   0.0000000000000000E+00   1.0576415000000001E+01
atom  -1.4093899999999959E-01   4.0342269999999996E+00   2.9490460000000005E+00 Mg   0.0000000000000000E+00   0.0000000000000000E+00   4.1939999999999998E-03  -4.5500000000000000E-04  -2.4180000000000000E-03
atom   2.9813719999999999E+00   2.2276609999999999E+00   7.6029530000000012E+00 Mg   0.0000000000000000E+00   0.0000000000000000E+00  -2.5739999999999999E-03  -2.0370000000000002E-03   3.3240000000000001E-03
atom   5.6755770000000005E+00   3.7568630000000001E+00   3.0470579999999998E+00 Mg   0.0000000000000000E+00   0.0000000000000000E+00   1.2475999999999999E-02  -5.7959999999999999E-03  -1.3810000000000001E-03
atom   9.0327510000000011E+00   2.4622530000000000E+00   8.4139769999999992E+00 Mg   0.0000000000000000E+00   0.0000000000000000E+00   6.4970000000000002E-03  -2.0567999999999999E-02  -1.4416000000000000E-02
atom  -1.0694520000000014E+00   3.0607649999999995E+00   2.5806369999999998E+00 Mg   0.0000000000000000E+00   0.0000000000000000E+00   4.7590000000000002E-03   4.7320000000000001E-03   4.9990000000000000E-03
atom   2.9689779999999977E+00   2.1111420000000001E+00   6.8744350000000001E+00 Mg   0.0000000000000000E+00   0.0000000000000000E+00  -5.0000000000000001E-03  -2.2970000000000000E-03   3.9969999999999997E-03
atom   6.3157869999999994E+00   3.1906270000000001E+00   2.4404180000000002E+00 Mg   0.0000000000000000E+00   0.0000000000000000E+00  -1.2708000000000001E-02   4.2259999999999997E-03  -3.8549999999999999E-03
atom   8.9279919999999997E+00   1.1283179999999999E+00   7.6434360000000003E+00 Mg   0.0000000000000000E+00   0.0000000000000000E+00  -1.8489999999999999E-03   3.7700000000000000E-04   2.9659999999999999E-03
atom  -3.6419979999999996E+00   9.7322469999999992E+00   2.9729209999999999E+00 Mg   0.0000000000000000E+00   0.0000000000000000E+00   1.6312000000000000E-02  -9.2860000000000009E-03  -4.4169999999999999E-03
atom  -2.1793599999999924E-01   7.2675569999999992E+00   7.7651150000000007E+00 Mg   0.0000000000000000E+00   0.0000000000000000E+00   5.8690000000000001E-03   2.9619999999999998E-03   3.9659999999999999E-03
atom   3.2007040000000013E+00   8.6952390000000008E+00   3.1061450000000002E+00 Mg   0.0000000000000000E+00   0.0000000000000000E+00  -5.6109999999999997E-03   9.5359999999999993E-03   1.0900000000000000E-03