#     Step Nr.          Time[fs]        Kin.[a.u.]          Temp[K]            Pot.[a.u.]        Cons Qty[a.u.]        UsedTime[s]
      1001          500.500000         0.174830471       584.201381385       -56.173236401       -55.996669223        43.107487602
      1002          501.000000         0.173647827       580.249538824       -56.171685388       -55.996660382        16.101925021
      1003          501.500000         0.177739993       593.923635792       -56.170420161       -55.996654517        16.254459644
      1004          502.000000         0.178438742       596.258526774       -56.170925417       -55.996665965        16.431843186
