begin
comment  i =      770, time =      385.000, E =       -55.9102857116
lattice   1.3396863000000000E+01   0.0000000000000000E+00   0.0000000000000000E+00
lattice  -6.6984320000000004E+00   1.1602024000000000E+01   0.0000000000000000E+00
lattice   0.0000000000000000E+00   0.0000000000000000E+00   1.0758101999999999E+01
atom  -2.1220360000000000E+00   3.9091650000000002E+00   4.0627500000000003E+00 Mg   0.0000000000000000E+00   0.0000000000000000E+00  -2.6899999999999998E-04   7.8440000000000003E-03   6.7400000000000003E-03
atom   6.0445799999999994E-01   2.4455520000000002E+00   9.3007620000000006E+00 Mg   0.0000000000000000E+00   0.0000000000000000E+00  -4.2050000000000004E-03  -2.9911000000000000E-02  -5.2440000000000004E-03
atom   4.3097669999999999E+00   3.8372870000000003E+00   5.1602129999999997E+00 Mg   0.0000000000000000E+00   0.0000000000000000E+00  -7.1840000000000003E-03   2.0200000000000001E-03  -1.1524000000000000E-02
atom   8.5837180000000011E+00   3.9076749999999998E+00   8.4762100000000000E+00 Mg   0.0000000000000000E+00   0.0000000000000000E+00   9.6310000000000007E-03  -3.8670000000000002E-03  -5.5999999999999995E-04
atom   1.0946676000000002E+01   3.9804320000000004E+00   3.2080940000000000E+00 Mg   0.0000000000000000E+00   0.0000000000000000E+00   3.0490000000000001E-03  -1.1882000000000000E-02  -5.4000000000000001E-04
atom   1.5613920000000008E+00   2.6329250000000002E+00   9.5551390000000005E+00 Mg   0.0000000000000000E+00   0.0000000000000000E+00   2.1059999999999998E-03   2.7330000000000002E-03  -3.2190000000000001E-03
atom   3.4250870000000027E+00   5.2574890000000005E+00   2.0464319999999998E+00 Mg   0.0000000000000000E+00   0.0000000000000000E+00   1.9050000000000000E-03  -2.1423000000000001E-02  -1.1795000000000000E-02
atom   4.6200550000000034E+00   1.0953379999999999E+00   4.9433520000000000E+00 Mg   0.0000000000000000E+00   0.0000000000000000E+00  -2.9320000000000001E-03  -2.0349999999999999E-03   2.3300000000000000E-03
atom  -1.6579260000000005E+00   1.0239412000000000E+01   3.3714089999999999E+00 Mg   0.0000000000000000E+00   0.0000000000000000E+00   3.3540000000000002E-03  -1.9150000000000000E-03  -2.2139999999999998E-03
atom   8.2022499999999954E-01   7.4584870000000008E+00   8.6243429999999996E+00 Mg   0.0000000000000000E+00   0.0000000000000000E+00   2.9889999999999999E-03   1.7092000000000000E-02  -6.0439999999999999E-03
atom   1.2171572000000001E+01   4.3059599999999920E-01   2.0522640000000001E+00 Mg   0.0000000000000000E+00   0.0000000000000000E+00   1.3159999999999999E-03  -8.5800000000000008E-03  -2.6159999999999998E-03
atom   6.5693210000000004E+00   1.0615851000000001E+01   9.4698700000000002E+00 Mg   0.0000000000000000E+00   0.0000000000000000E+00   4.2300000000000003E-03  -1.8003000000000002E-02  -5.8000000000000000E-04
atom  -2.3979380000000008E+00   9.6021450000000002E+00   2.1321159999999999E+00 Mg   0.0000000000000000E+00   0.0000000000000000E+00  -3.3709999999999999E-03   7.0410000000000004E-03  -7.6829999999999997E-03
atom  -3.4137400000000023E-01   8.0307820000000003E+00   7.1025629999999991E+00 Mg   0.0000000000000000E+00   0.0000000000000000E+00   5.2189999999999997E-03  -1.0889999999999999E-03   1.7179999999999999E-03
atom   3.4998870000000020E+00   9.9180890000000002E+00   2.7039609999999996E+00 Mg   0.0000000000000000E+00   0.0000000000000000E+00   1.5740000000000001E-03   3.9019999999999999E-02  -1.1854000000000000E-02
atom   6.2201020000000051E+00   7.8598460000000010E+00   7.0269339999999998E+00 Mg   0.0000000000000000E+00   0.0000000000000000E+00   1.1900000000000001E-04  -1.5910000000000000E-03   3.4200000000000002E-04
atom   2.4077740000000016E+00   3.3113829999999989E+00   4.0217020000000003E+00 Mg   0.0000000000000000E+00   0.0000000000000000E+00  -1.4281000000000000E-02   6.6319999999999999E-03   2.7399999999999998E-03
atom   5.3463210000000005E+00   1.2064290000000009E+00   8.4843679999999999E+00 Mg   0.0000000000000000E+00   0.0000000000000000E+00  -1.0765000000000000E-02   2.4900000000000000E-03   6.6600000000000003E-04
atom   6.5074540000000001E+00   5.3912090000000017E+00   1.8743540000000001E+00 Mg   0.0000000000000000E+00   0.0000000000000000E+00   8.3070000000000001E-03  -4.8770000000000003E-03  -2.2020000000000001E-02
atom   1.0481987000000002E+01   3.2317460000000002E+00   7.0497360000000002E+00 Mg   0.0000000000000000E+00   0.0000000000000000E+00  -3.1900000000000001E-03   1.9269999999999999E-03  -6.7210000000000004E-03
atom  -1.5233459999999996E+00   6.0576480000000021E+00   2.2698909999999999E+00 Mg   0.0000000000000000E+00   0.0000000000000000E+00   1.3986999999999999E-02   4.9979999999999998E-03  -5.9519999999999998E-03
atom   3.3558460000000023E+00   2.6229900000000010E+00   6.1587179999999995E+00 Mg   0.0000000000000000E+00   0.0000000000000000E+00   3.5780000000000000E-03  -2.4620000000000002E-03  -1.5382000000000000E-02
atom   8.6939510000000020E+00   4.3929890000000000E+00   1.6397560000000000E+00 Mg   0.0000000000000000E+00   0.0000000000000000E+00   9.5960000000000004E-03  -9.4600000000000001E-04  -3.6299999999999999E-04
atom   9.9282220000000017E+00   2.0352190000000001E+00   7.0886750000000003E+00 Mg   0.0000000000000000E+00   0.0000000000000000E+00  -2.5130000000000000E-03  -8.2649999999999998E-03   1.0763000000000000E-02
atom   5.7374100000000006E+00   8.6503430000000012E+00   3.8953519999999995E+00 Mg   0.0000000000000000E+00   0.0000000000000000E+00   1.7365999999999999E-02  -6.5529999999999998E-03  -5.3249999999999999E-03
atom  -4.1831600000000002E-01   7.9539540000000013E+00   7.3943320000000003E+00 Mg   0.0000000000000000E+00   0.0000000000000000E+00   6.1289999999999999E-03   8.0380000000000000E-03  -9.0899999999999998E-04
atom   5.1420800000000011E-01   9.4278350000000000E+00   2.3568609999999999E+00 Mg   0.0000000000000000E+00   0.0000000000000000E+00   5.7780000000000001E-03   1.2060000000000000E-03   4.9600000000000002E-04
atom   5.8626500000000004E+00   8.0568260000000009E+00   6.2691670000000004E+00 Mg   0.0000000000000000E+00   0.0000000000000000E+00  -2.6940000000000002E-03   1.0206000000000000E-02   9.3790000000000002E-03
atom  -3.9665059999999981E+00   1.0606466999999999E+01   1.0108496999999998E+01 Mg   0.0000000000000000E+00   0.0000000000000000E+00  -1.3856000000000000E-02  -5.7640000000000000E-03   7.8930000000000007E-03
atom   9.0339600000000164E-01   7.4573730000000014E+00   7.6424960000000004E+00 Mg   0.0000000000000000E+00   0.0000000000000000E+00  -3.0899999999999999E-03   1.6295000000000000E-02  -1.0460000000000001E-02
atom   3.6354210000000022E+00   4.2064380000000003E+00   1.0619850999999999E+01 Mg   0.0000000000000000E+00   0.0000000000000000E+00  -8.8739999999999999E-03   8.9990000000000001E-03   2.5441999999999999E-02
atom   7.0294990000000022E+00   6.1940970000000002E+00   9.7138679999999997E+00 Mg   0.0000000000000000E+00   0.0000000000000000E+00  -1.0559000000000001E-02  -5.7000000000000003E-05   1.6280000000000001E-03
atom  -6.0434199999999993E-01   3.5770830000000000E+00   4.8742550000000024E+00 Mg   0.0000000000000000E+00   0.0000000000000000E+00   4.1660000000000004E-03  -3.5469999999999998E-03   9.0189999999999992E-03
atom  -4.4810400000000001E+00   1.1357474999999999E+01   8.1061160000000019E+00 Mg   0.0000000000000000E+00   0.0000000000000000E+00  -3.8070000000000001E-03  -1.1490000000000001E-03   4.1260000000000003E-03
atom   4.7671280000000014E+00   3.8547530000000001E+00   1.7843810000000022E+00 Mg   0.0000000000000000E+00   0.0000000000000000E+00   8.8280000000000008E-03   2.8903999999999999E-02   2.2150000000000000E-03
atom   2.7907189999999997E+00   1.0007707000000000E+01   7.5656680000000005E+00 Mg   0.0000000000000000E+00   0.0000000000000000E+00  -5.2579999999999997E-03   1.0059999999999999E-02   7.4700000000000005E-04
atom   1.0813489000000002E+01   2.1077399999999999E-01   1.9392649999999994E+00 Mg   0.0000000000000000E+00   0.0000000000000000E+00   4.1390000000000003E-03   1.6836000000000000E-02   7.8650000000000005E-03
atom   4.6126560000000021E+00   2.5630139999999999E+00   4.8173169999999992E+00 Mg   0.0000000000000000E+00   0.0000000000000000E+00  -3.3969999999999998E-03   9.6989999999999993E-03  -3.0379999999999999E-03
atom   7.9850130000000012E+00   4.8005340000000007E+00   5.6706500000000182E-01 Mg   0.0000000000000000E+00   0.0000000000000000E+00  -8.2070000000000008E-03   1.9100000000000000E-03  -1.1802999999999999E-02
atom   7.8927179999999995E+00   7.0801400000000014E-01   9.2111799999999988E+00 Mg   0.0000000000000000E+00   0.0000000000000000E+00   3.1110000000000001E-03   3.1319999999999998E-03  -9.4619999999999999E-03
atom  -1.3149860000000000E+00   8.7494829999999997E+00   3.1785600000000001E+00 Mg   0.0000000000000000E+00   0.0000000000000000E+00   1.2643000000000000E-02   3.8960000000000002E-03   5.2379999999999996E-03
atom   8.3585100000000001E-01   6.5770800000000005E+00   9.7044639999999998E+00 Mg   0.0000000000000000E+00   0.0000000000000000E+00   2.0805000000000001E-02  -6.6379999999999998E-03  -2.5810000000000000E-03
atom   4.1304520000000000E+00   8.4451199999999993E+00   4.9439800000000016E+00 Mg   0.0000000000000000E+00   0.0000000000000000E+00   7.4489999999999999E-03  -3.0070000000000001E-03   1.7580000000000000E-03
atom   7.0176210000000001E+00   4.4859770000000001E+00   8.3684270000000005E+00 Mg   0.0000000000000000E+00   0.0000000000000000E+00  -4.4099999999999999E-03   2.9069999999999999E-03  -2.3100000000000000E-04
atom  -2.6499489999999972E+00   6.1437150000000003E+00   2.7837089999999987E+00 Mg   0.0000000000000000E+00   0.0000000000000000E+00  -1.1212000000000000E-02   4.9170000000000004E-03  -1.5939999999999999E-02
atom  -6.3931499999999908E-01   5.9518980000000008E+00   7.3992799999999983E+00 Mg   0.0000000000000000E+00   0.0000000000000000E+00   1.2676000000000000E-02  -1.3720000000000000E-03   1.4360000000000000E-02
atom   3.4347510000000034E+00   7.7269329999999998E+00   1.6052470000000003E+00 Mg   0.0000000000000000E+00   0.0000000000000000E+00  -1.1279000000000001E-02   4.4500000000000000E-03   3.6640000000000002E-03
atom   7.8602270000000019E+00   7.8499749999999997E+00   8.1162520000000011E+00 Mg   0.0000000000000000E+00   0.0000000000000000E+00  -1.6111000000000000E-02  -6.3249999999999999E-03  -2.1229999999999999E-03
atom   1.6318589999999999E+00   6.0418499999999975E-01   2.3810280000000006E+00 Mg   0.0000000000000000E+00   0.0000000000000000E+00  -6.8329999999999997E-03   4.1790000000000004E-03  -1.0647999999999999E-02
atom   2.5652720000000002E+00   2.0860450000000013E+00   7.6792400000000001E+00 Mg   0.0000000000000000E+00   0.0000000000000000E+00   6.4099999999999997E-04  -4.0340000000000003E-03   2.4027000000000000E-02
atom   9.2187619999999999E+00   1.3611990000000007E+00   1.6546980000000022E+00 Mg   0.0000000000000000E+00   0.0000000000000000E+00  -1.5960000000000000E-03   5.0359999999999997E-03   1.2840000000000001E-02
atom   7.7722619999999996E+00   8.6586700000000139E-01   7.5815579999999994E+00 Mg   0.0000000000000000E+00   0.0000000000000000E+00   6.9610000000000002E-03  -1.3240000000000001E-03   3.0130000000000001E-03
atom   1.9781330000000055E+00   4.6489480000000007E+00   6.1615700000000140E-01 Mg   0.0000000000000000E+00   0.0000000000000000E+00  -1.2593999999999999E-02  -2.6318999999999999E-02   1.0987000000000000E-02
atom   1.8788890000000025E+00   8.7901199999999879E-01   6.0273329999999996E+00 Mg   0.0000000000000000E+00   0.0000000000000000E+00  -1.2326999999999999E-02  -1.5330000000000000E-02  -1.4389000000000001E-02
atom   5.1292160000000013E+00   7.7170000000002376E-02   4.1736100000000081E-01 Mg   0.0000000000000000E+00   0.0000000000000000E+00   1.2231000000000001E-02   3.1459999999999999E-03   9.0200000000000002E-03
atom   7.6631390000000019E+00   4.0978800000000254E-01   5.9406630000000025E+00 Mg   0.0000000000000000E+00   0.0000000000000000E+00   8.1180000000000002E-03  -7.4240000000000000E-03   5.9839999999999997E-03
atom  -1.8301400000000019E+00   9.3910800000000005E+00   2.6323720000000006E+00 Mg   0.0000000000000000E+00   0.0000000000000000E+00  -9.9159999999999995E-03  -7.6540000000000002E-03  -4.6839999999999998E-03
atom  -1.6561800000000043E-01   5.0590780000000013E+00   4.7347270000000004E+00 Mg   0.0000000000000000E+00   0.0000000000000000E+00  -1.5821000000000002E-02   5.1120000000000002E-03   7.2880000000000002E-03
atom   3.2347530000000000E+00   6.0458320000000016E+00   3.9002900000000029E-01 Mg   0.0000000000000000E+00   0.0000000000000000E+00  -1.5299999999999999E-03  -2.2072999999999999E-02  -9.5390000000000006E-03
atom   7.1185880000000008E+00   6.0042480000000014E+00   4.8363010000000006E+00 Mg   0.0000000000000000E+00   0.0000000000000000E+00   2.7740000000000000E-03  -7.9480000000000002E-03   8.5909999999999997E-03
atom  -3.3087099999999978E+00   7.1347239999999994E+00   3.7707500000000133E-01 Mg   0.0000000000000000E+00   0.0000000000000000E+00  -6.7349999999999997E-03   8.7110000000000000E-03  -1.1770000000000001E-03
atom  -6.2100999999997956E-02   6.8297680000000032E+00   5.3067809999999973E+00 Mg   0.0000000000000000E+00   0.0000000000000000E+00  -1.6261000000000001E-02  -5.3080000000000002E-03   2.1312000000000001E-02
atom   2.4981580000000005E+00   1.0031468000000002E+01   1.8618499999999991E+00 Mg   0.0000000000000000E+00   0.0000000000000000E+00   6.5440000000000003E-03  -6.9890000000000004E-03  -5.6460000000000000E-03
atom   5.1224170000000022E+00   5.4640440000000030E+00   4.5863590000000025E+00 Mg   0.0000000000000000E+00   0.0000000000000000E+00   2.3757000000000000E-02   6.2280000000000000E-03   7.2000000000000002E-05
energy  -5.5910285999999999E+01
charge   0.0000000000000000E+00
end
begin
comment  i =    20330, time =    10165.000, E =       -56.3671580720
lattice   1.2829912000000000E+01   0.0000000000000000E+00   0.0000000000000000E+00
lattice  -6.4149560000000001E+00   1.1111030000000000E+01   0.0000000000000000E+00
lattice   0.0000000000000000E+00   0.0000000000000000E+00   1.0302822000000001E+01
atom  -1.8899800000000033E-01   3.4282160000000004E+00   2.4782430000000000E+00 Mg   0.0000000000000000E+00   0.0000000000000000E+00   2.7970000000000000E-03   9.2900000000000003E-04  -6.3199999999999997E-04
atom   3.0761889999999998E+00   1.9207289999999999E+00   7.2186490000000001E+00 Mg   0.0000000000000000E+00   0.0000000000000000E+00   9.3899999999999995E-04  -1.3690000000000000E-03   1.0369999999999999E-03
atom   5.9907660000000007E+00   3.5854070000000005E+00   2.4406919999999999E+00 Mg   0.0000000000000000E+00   0.0000000000000000E+00   4.2000000000000002E-04  -8.0699999999999999E-04  -9.7000000000000005E-04
atom   9.1193679999999997E+00   1.8481490000000003E+00   7.1650580000000001E+00 Mg   0.0000000000000000E+00   0.0000000000000000E+00  -7.2999999999999999E-05   1.0500000000000000E-04   2.0539999999999998E-03
atom  -7.1079599999999910E-01   3.6180620000000006E+00   2.2639230000000001E+00 Mg   0.0000000000000000E+00   0.0000000000000000E+00  -2.1800000000000001E-03  -1.4959999999999999E-03   2.8900000000000002E-03
atom   2.3185569999999989E+00   1.8776320000000002E+00   7.3042490000000004E+00 Mg   0.0000000000000000E+00   0.0000000000000000E+00  -1.3400000000000000E-04  -2.4420000000000002E-03  -3.5199999999999999E-04
atom   5.1497929999999963E+00   3.6469900000000006E+00   2.4544359999999998E+00 Mg   0.0000000000000000E+00   0.0000000000000000E+00   3.1189999999999998E-03  -2.8410000000000002E-03   2.4160000000000002E-03
atom   8.4990449999999971E+00   1.6678290000000002E+00   7.5139190000000005E+00 Mg   0.0000000000000000E+00   0.0000000000000000E+00  -4.0249999999999999E-03   2.3649999999999999E-03  -5.1110000000000001E-03
atom  -2.9400049999999998E+00   8.7114910000000005E+00   2.3538950000000001E+00 Mg   0.0000000000000000E+00   0.0000000000000000E+00  -2.3739999999999998E-03   4.5500000000000000E-04   1.7470000000000001E-03
atom   7.0189999999999905E-02   7.0116350000000010E+00   7.2061000000000002E+00 Mg   0.0000000000000000E+00   0.0000000000000000E+00   5.0000000000000004E-06  -6.7699999999999998E-04  -1.0600000000000000E-04
atom   3.1615549999999994E+00   8.7885510000000018E+00   2.3646850000000001E+00 Mg   0.0000000000000000E+00   0.0000000000000000E+00  -2.0929999999999998E-03  -1.5420000000000000E-03   2.7799999999999999E-03
atom   6.2945410000000006E+00   7.2413920000000012E+00   7.2908799999999996E+00 Mg   0.0000000000000000E+00   0.0000000000000000E+00  -2.7770000000000000E-03  -3.5739999999999999E-03   2.2300000000000000E-04
atom  -3.6192950000000010E+00   8.8799869999999999E+00   2.4134829999999998E+00 Mg   0.0000000000000000E+00   0.0000000000000000E+00  -2.3519999999999999E-03   2.2499999999999999E-04  -2.9200000000000000E-04
atom  -6.1417300000000086E-01   7.1762210000000008E+00   7.0552349999999997E+00 Mg   0.0000000000000000E+00   0.0000000000000000E+00   4.2800000000000000E-04  -2.6159999999999998E-03   5.9059999999999998E-03
atom   2.2685409999999964E+00   8.9247600000000009E+00   2.3933019999999998E+00 Mg   0.0000000000000000E+00   0.0000000000000000E+00   3.2079999999999999E-03  -1.1329999999999999E-03   9.2299999999999999E-04
atom   5.4298329999999995E+00   6.9258119999999996E+00   7.3467180000000001E+00 Mg   0.0000000000000000E+00   0.0000000000000000E+00   3.3000000000000000E-04   2.2209999999999999E-03  -1.2710000000000000E-03
atom   3.0103200000000119E-01   2.8254650000000017E+00   2.3313489999999999E+00 Mg   0.0000000000000000E+00   0.0000000000000000E+00   1.6509999999999999E-03   2.0060000000000000E-03   1.7769999999999999E-03
atom   3.4158530000000003E+00   1.1265480000000005E+00   7.3872249999999999E+00 Mg   0.0000000000000000E+00   0.0000000000000000E+00  -7.3700000000000002E-04  -1.5080000000000000E-03  -3.4589999999999998E-03
atom   6.2963469999999999E+00   2.8622200000000024E+00   2.4083760000000001E+00 Mg   0.0000000000000000E+00   0.0000000000000000E+00   1.1800000000000001E-03   3.1000000000000001E-05   1.3690000000000000E-03
atom   9.4438329999999997E+00   1.0580320000000023E+00   7.3424830000000005E+00 Mg   0.0000000000000000E+00   0.0000000000000000E+00  -6.2100000000000002E-04   2.8800000000000002E-03   7.1900000000000002E-04
atom  -5.6489800000000046E-01   2.8810550000000017E+00   2.5975370000000000E+00 Mg   0.0000000000000000E+00   0.0000000000000000E+00   2.8769999999999998E-03   1.6010000000000000E-03  -1.0440000000000000E-03
atom   2.8135220000000012E+00   1.2851400000000022E+00   7.4622310000000009E+00 Mg   0.0000000000000000E+00   0.0000000000000000E+00  -5.9500000000000004E-04   1.1100000000000000E-04  -1.9289999999999999E-03
atom   5.6904260000000004E+00   3.0898790000000007E+00   2.6009639999999998E+00 Mg   0.0000000000000000E+00   0.0000000000000000E+00  -2.3100000000000000E-04  -1.0960000000000000E-03   1.8500000000000000E-04
atom   8.8599189999999961E+00   1.1759940000000026E+00   7.4198870000000010E+00 Mg   0.0000000000000000E+00   0.0000000000000000E+00  -2.3010000000000001E-03  -1.3610000000000000E-03  -1.9230000000000000E-03
atom  -2.7119090000000003E+00   8.1531730000000007E+00   2.3311050000000000E+00 Mg   0.0000000000000000E+00   0.0000000000000000E+00  -4.3999999999999999E-05   5.5400000000000002E-04   1.1090000000000000E-03
atom   3.5579900000000048E-01   6.3025120000000019E+00   7.2434930000000000E+00 Mg   0.0000000000000000E+00   0.0000000000000000E+00  -4.4600000000000000E-04   1.9970000000000001E-03  -3.0839999999999999E-03
atom   3.2784740000000001E+00   8.2004680000000008E+00   2.4040919999999999E+00 Mg   0.0000000000000000E+00   0.0000000000000000E+00   2.9799999999999998E-04  -1.4139999999999999E-03  -9.3800000000000003E-04
atom   6.2693889999999994E+00   6.2877270000000030E+00   7.2554360000000004E+00 Mg   0.0000000000000000E+00   0.0000000000000000E+00   2.3720000000000000E-03   2.2350000000000000E-03  -4.9200000000000003E-04
atom  -3.5283659999999992E+00   8.0968610000000023E+00   2.4122770000000000E+00 Mg   0.0000000000000000E+00   0.0000000000000000E+00  -1.2999999999999999E-04   1.6290000000000000E-03   1.3240000000000001E-03
atom  -4.2379400000000100E-01   6.4804080000000024E+00   7.3065690000000005E+00 Mg   0.0000000000000000E+00   0.0000000000000000E+00   3.7500000000000001E-04  -1.3860000000000001E-03   0.0000000000000000E+00
atom   2.4999099999999981E+00   8.1545610000000028E+00   2.4853149999999999E+00 Mg   0.0000000000000000E+00   0.0000000000000000E+00   9.4200000000000002E-04   1.4899999999999999E-04   9.6800000000000000E-04
atom   5.6811589999999974E+00   6.5452410000000025E+00   7.4583310000000003E+00 Mg   0.0000000000000000E+00   0.0000000000000000E+00   7.6599999999999997E-04  -2.8370000000000001E-03  -5.1260000000000003E-03
atom  -1.4633600000000016E-01   3.4995270000000005E+00   1.8612819999999990E+00 Mg   0.0000000000000000E+00   0.0000000000000000E+00   4.6790000000000000E-03   7.6000000000000004E-04   2.8319999999999999E-03
atom   3.0510669999999998E+00   1.5978690000000002E+00   6.6266969999999992E+00 Mg   0.0000000000000000E+00   0.0000000000000000E+00   4.7100000000000001E-04   3.0980000000000001E-03   6.4400000000000004E-04
atom   6.0677719999999997E+00   3.4987970000000006E+00   1.8156149999999998E+00 Mg   0.0000000000000000E+00   0.0000000000000000E+00  -6.4599999999999998E-04   8.4599999999999996E-04   7.1599999999999995E-04
atom   9.1621050000000004E+00   1.5671180000000002E+00   6.7025339999999991E+00 Mg   0.0000000000000000E+00   0.0000000000000000E+00  -1.7129999999999999E-03   3.0630000000000002E-03   2.4800000000000001E-04
atom  -7.4815899999999813E-01   3.4115960000000003E+00   1.8718370000000002E+00 Mg   0.0000000000000000E+00   0.0000000000000000E+00  -2.9100000000000003E-04   1.0850000000000000E-03  -1.8920000000000000E-03
atom   2.3041759999999991E+00   1.7184320000000000E+00   6.7676259999999981E+00 Mg   0.0000000000000000E+00   0.0000000000000000E+00   5.7600000000000001E-04  -1.7600000000000001E-03  -2.3419999999999999E-03
atom   5.4182859999999957E+00   3.4349550000000004E+00   1.9705219999999992E+00 Mg   0.0000000000000000E+00   0.0000000000000000E+00  -1.9710000000000001E-03  -1.0360000000000000E-03   3.4499999999999998E-04
atom   8.3819809999999997E+00   1.7127920000000001E+00   6.8453549999999996E+00 Mg   0.0000000000000000E+00   0.0000000000000000E+00  -2.1300000000000000E-04   3.6400000000000001E-04  -1.5839999999999999E-03
atom  -3.0084320000000004E+00   8.7689900000000005E+00   1.7919729999999994E+00 Mg   0.0000000000000000E+00   0.0000000000000000E+00  -8.0800000000000002E-04  -2.0130000000000000E-03   2.6329999999999999E-03
atom   2.4833699999999972E-01   7.1137890000000006E+00   6.7348569999999990E+00 Mg   0.0000000000000000E+00   0.0000000000000000E+00  -3.8980000000000000E-03  -5.3790000000000001E-03  -2.1440000000000001E-03
atom   3.0213690000000000E+00   8.7510840000000023E+00   1.8038979999999996E+00 Mg   0.0000000000000000E+00   0.0000000000000000E+00   1.3700000000000000E-04  -1.7290000000000001E-03   9.6500000000000004E-04
atom   6.1415139999999990E+00   6.9589000000000008E+00   6.8125090000000004E+00 Mg   0.0000000000000000E+00   0.0000000000000000E+00   6.2299999999999996E-04  -1.1130000000000001E-03  -2.8050000000000002E-03
atom  -3.7269550000000011E+00   8.7418100000000010E+00   1.9511499999999997E+00 Mg   0.0000000000000000E+00   0.0000000000000000E+00   3.2899999999999997E-04  -2.2020000000000000E-03  -1.2949999999999999E-03
atom  -7.0339799999999986E-01   7.0221580000000010E+00   6.7231629999999969E+00 Mg   0.0000000000000000E+00   0.0000000000000000E+00  -1.1659999999999999E-03  -8.9599999999999999E-04  -8.9099999999999997E-04
atom   2.2261320000000011E+00   8.5657820000000005E+00   1.9468310000000006E+00 Mg   0.0000000000000000E+00   0.0000000000000000E+00   2.6519999999999998E-03   1.6590000000000001E-03  -3.3000000000000000E-03
atom   5.2833560000000013E+00   6.9478330000000001E+00   6.7665539999999975E+00 Mg   0.0000000000000000E+00   0.0000000000000000E+00   3.1519999999999999E-03   2.1189999999999998E-03  -1.4319999999999999E-03
atom   2.7611300000000072E-01   2.7747760000000015E+00   1.8411209999999989E+00 Mg   0.0000000000000000E+00   0.0000000000000000E+00   1.4250000000000001E-03   3.4999999999999997E-05   1.5860000000000000E-03
atom   3.5070710000000003E+00   1.0906610000000025E+00   6.6614479999999991E+00 Mg   0.0000000000000000E+00   0.0000000000000000E+00  -3.4390000000000002E-03  -1.2340000000000001E-03   1.4059999999999999E-03
atom   6.3503029999999994E+00   2.9626110000000030E+00   1.9689439999999980E+00 Mg   0.0000000000000000E+00   0.0000000000000000E+00   2.0110000000000002E-03  -2.4489999999999998E-03  -3.4199999999999999E-03
atom   9.4802040000000005E+00   1.0982289999999999E+00   6.7312889999999985E+00 Mg   0.0000000000000000E+00   0.0000000000000000E+00   6.2100000000000002E-04   1.6890000000000000E-03   9.1000000000000003E-05
atom  -2.3606800000000108E-01   2.6950680000000014E+00   1.9297539999999995E+00 Mg   0.0000000000000000E+00   0.0000000000000000E+00  -3.3100000000000000E-03   4.3449999999999999E-03  -5.4799999999999998E-04
atom   2.6180550000000005E+00   1.2684580000000023E+00   6.9141449999999995E+00 Mg   0.0000000000000000E+00   0.0000000000000000E+00   1.0000000000000000E-03  -1.5050000000000000E-03  -1.1900000000000001E-04
atom   5.7265990000000011E+00   2.7653310000000011E+00   2.0614299999999997E+00 Mg   0.0000000000000000E+00   0.0000000000000000E+00   6.0899999999999995E-04   1.0449999999999999E-03  -1.9610000000000001E-03
atom   8.6990029999999994E+00   1.1169130000000012E+00   6.7960489999999982E+00 Mg   0.0000000000000000E+00   0.0000000000000000E+00   1.1540000000000001E-03   3.7599999999999998E-04  -5.3399999999999997E-04
atom  -2.5933749999999995E+00   8.0249840000000017E+00   1.6547170000000007E+00 Mg   0.0000000000000000E+00   0.0000000000000000E+00  -1.3530000000000000E-03   2.7190000000000001E-03   3.7759999999999998E-03
atom   4.7876800000000019E-01   6.3266090000000030E+00   6.4767779999999968E+00 Mg   0.0000000000000000E+00   0.0000000000000000E+00  -2.0810000000000000E-03  -4.6600000000000000E-04   3.7260000000000001E-03
atom   3.3392310000000003E+00   8.1473580000000023E+00   1.7097309999999988E+00 Mg   0.0000000000000000E+00   0.0000000000000000E+00   8.8599999999999996E-04   2.7999999999999998E-04  -1.1000000000000000E-05
atom   6.4422030000000001E+00   6.2971469999999998E+00   6.6551490000000006E+00 Mg   0.0000000000000000E+00   0.0000000000000000E+00   2.0200000000000000E-04   2.4220000000000001E-03   2.2740000000000000E-03
atom  -3.4449090000000018E+00   8.0159630000000028E+00   1.7513600000000000E+00 Mg   0.0000000000000000E+00   0.0000000000000000E+00   1.6780000000000000E-03   2.0490000000000000E-03   1.8860000000000001E-03
atom  -4.2776999999999848E-01   6.3131190000000013E+00   6.8299800000000008E+00 Mg   0.0000000000000000E+00   0.0000000000000000E+00   9.8599999999999990E-04   1.5110000000000000E-03  -3.0320000000000000E-03
atom   2.7023519999999994E+00   8.0103960000000018E+00   1.9334660000000001E+00 Mg   0.0000000000000000E+00   0.0000000000000000E+00  -2.0760000000000002E-03   8.6000000000000003E-05   2.4239999999999999E-03
atom   5.7612159999999975E+00   6.3597300000000008E+00   6.7083409999999999E+00 Mg   0.0000000000000000E+00   0.0000000000000000E+00  -8.2100000000000001E-04   8.3500000000000002E-04   1.0620000000000000E-03
energy  -5.6367158000000003E+01
charge   0.0000000000000000E+00
end
begin
comment  i =     1600, time =      800.000, E =       -56.3652069117
lattice   1.2823368000000000E+01   0.0000000000000000E+00   0.0000000000000000E+00
lattice  -6.4116840000000002E+00   1.1105363000000001E+01   0.0000000000000000E+00
lattice   0.0000000000000000E+00   0.0000000000000000E+00   1.0297567000000001E+01
atom  -6.3080000000000261E-02   3.5597919999999994E+00   2.4437340000000001E+00 Mg   0.0000000000000000E+00   0.0000000000000000E+00   1.7760000000000000E-03  -1.2030000000000001E-03  -8.5200000000000000E-04
atom   2.7003089999999994E+00   1.5312929999999996E+00   7.1578399999999993E+00 Mg   0.0000000000000000E+00   0.0000000000000000E+00   4.1820000000000000E-03   3.9870000000000001E-03  -1.0240000000000000E-03
atom   5.9117579999999990E+00   3.4286439999999989E+00   2.1242880000000000E+00 Mg   0.0000000000000000E+00   0.0000000000000000E+00   1.1349999999999999E-03  -1.6600000000000000E-03   4.9290000000000002E-03
atom   8.8405249999999977E+00   1.7290589999999997E+00   7.2078189999999998E+00 Mg   0.0000000000000000E+00   0.0000000000000000E+00   2.2209999999999999E-03   2.1710000000000002E-03  -6.1100000000000000E-04
atom  -6.3678800000000313E-01   3.4584579999999994E+00   2.4162530000000002E+00 Mg   0.0000000000000000E+00   0.0000000000000000E+00  -1.3920000000000000E-03   5.4299999999999997E-04  -2.3300000000000000E-04
atom   2.1536029999999977E+00   1.7133499999999997E+00   7.4160859999999991E+00 Mg   0.0000000000000000E+00   0.0000000000000000E+00   4.9299999999999995E-04   2.3720000000000000E-03  -1.6899999999999999E-04
atom   5.3709629999999926E+00   3.4530849999999993E+00   2.5447250000000001E+00 Mg   0.0000000000000000E+00   0.0000000000000000E+00  -4.5600000000000003E-04   2.5409999999999999E-03  -1.6470000000000000E-03
atom   8.1528709999999958E+00   1.7024509999999997E+00   7.4105080000000001E+00 Mg   0.0000000000000000E+00   0.0000000000000000E+00   1.9090000000000001E-03   1.6220000000000000E-03  -1.2190000000000000E-03
atom  -2.7868129999999995E+00   8.7332089999999987E+00   2.3991780000000000E+00 Mg   0.0000000000000000E+00   0.0000000000000000E+00  -3.1140000000000000E-03  -1.1490000000000001E-03   1.3489999999999999E-03
atom   3.6091000000000290E-02   6.9121149999999991E+00   7.4518019999999989E+00 Mg   0.0000000000000000E+00   0.0000000000000000E+00  -5.4000000000000001E-04   7.2199999999999999E-04  -4.6810000000000003E-03