begin
comment  i =     1390, time =      695.000, E =       -55.8538607430
lattice        13.635517        0.000000        0.000000
lattice        -6.817759       11.808704        0.000000
lattice         0.000000        0.000000       10.949748
atom     -1.983474     5.480247     3.725458  Mg       0.000000     0.000000    -0.012771    -0.003338    -0.000721
atom      0.872655     1.072690     9.741784  Mg       0.000000     0.000000    -0.009128     0.000458    -0.009028
atom      4.400858     2.890580     4.965251  Mg       0.000000     0.000000     0.000675    -0.002507    -0.003998
atom      9.093970     4.441516     8.178627  Mg       0.000000     0.000000     0.001103     0.001163    -0.004173
atom     12.336101     2.882583     3.756073  Mg       0.000000     0.000000    -0.002157     0.011846     0.008287
atom     15.493180     2.859661     9.904802  Mg       0.000000     0.000000    -0.009015     0.013026    -0.010940
atom     17.730662     5.231720     1.097025  Mg       0.000000     0.000000    -0.013642     0.016780     0.006282
atom     17.909791     1.700648     5.333417  Mg       0.000000     0.000000     0.002669     0.008312    -0.007772
atom     -2.143763    11.360110     2.737823  Mg       0.000000     0.000000     0.013653    -0.018804    -0.005405
atom      2.023307     7.537865     7.086069  Mg       0.000000     0.000000     0.008729    -0.001821     0.006254
atom      5.157517    10.830866     2.275331  Mg       0.000000     0.000000     0.002871    -0.003553     0.000545
atom      6.963974    10.012332     9.278728  Mg       0.000000     0.000000    -0.019263     0.004966    -0.012024
atom     12.164765     9.348894     2.347797  Mg       0.000000     0.000000     0.010915     0.011773     0.012076
atom     12.268361    10.715446     9.261398  Mg       0.000000     0.000000     0.017286     0.008139    -0.002223
atom     18.373422    12.069828     2.150325  Mg       0.000000     0.000000    -0.011222    -0.012995    -0.003247
atom     16.637812     8.031842     6.396187  Mg       0.000000     0.000000     0.005123    -0.002300     0.002026
atom     -2.559128    16.274691     4.968569  Mg       0.000000     0.000000    -0.006325     0.007378     0.007582
atom     -2.112855    10.740848     8.243921  Mg       0.000000     0.000000    -0.014697     0.010009     0.005363
atom      1.939669    14.971795     1.156636  Mg       0.000000     0.000000     0.001118     0.015147    -0.008121
atom      3.212548    14.152291     6.808547  Mg       0.000000     0.000000     0.000609    -0.024022     0.003910
atom      6.675141    19.866204     2.162736  Mg       0.000000     0.000000    -0.016530    -0.006128    -0.002072
atom      9.290515    16.109997     4.408912  Mg       0.000000     0.000000     0.006923    -0.024549     0.009723
atom     15.912350    19.222051     4.480271  Mg       0.000000     0.000000     0.009540    -0.003527     0.010842
atom     17.969343    14.746116     7.404011  Mg       0.000000     0.000000     0.003236    -0.005523     0.010370
atom    -14.302725    21.833025     3.373947  Mg       0.000000     0.000000     0.000115     0.011961     0.003230
atom     -5.503622    21.262843     8.227155  Mg       0.000000     0.000000    -0.002719    -0.007927    -0.016548
atom     -3.672143    20.952486     1.329897  Mg       0.000000     0.000000    -0.007044     0.001108     0.004443
atom      2.319759    18.980812     6.509195  Mg       0.000000     0.000000    -0.008910     0.027745    -0.006347
atom      1.855071    22.221433     0.120846  Mg       0.000000     0.000000     0.014424    -0.011624    -0.006964
atom      7.952739    20.161039     8.045643  Mg       0.000000     0.000000    -0.000496     0.005256     0.012834
atom     11.077931    17.192767    -0.794511  Mg       0.000000     0.000000     0.008022    -0.004971     0.037151
atom     12.436281    17.142476     9.530329  Mg       0.000000     0.000000    -0.002238    -0.005091    -0.000581
atom      0.532336     0.857774    15.695722  Mg       0.000000     0.000000     0.000288     0.004216     0.005509
atom      3.541511    -0.090462    20.316722  Mg       0.000000     0.000000    -0.004215     0.010174     0.002967
atom      5.141230     2.515341    13.087463  Mg       0.000000     0.000000     0.007175     0.011127    -0.003418
atom      7.255730    -1.574131    16.459378  Mg       0.000000     0.000000     0.001131    -0.010434     0.008600
atom     10.374922     0.222848    12.446796  Mg       0.000000     0.000000     0.015598     0.007536     0.002755
atom     16.010093     3.943533    14.975449  Mg       0.000000     0.000000     0.010129    -0.003474     0.007648
atom     21.392267     4.773570     9.151988  Mg       0.000000     0.000000     0.000150    -0.000158    -0.000490
atom     20.511968     1.561232    19.528633  Mg       0.000000     0.000000     0.014444    -0.004768    -0.014120
atom     -0.894837     7.838760    13.374308  Mg       0.000000     0.000000    -0.003507    -0.016269    -0.005051
atom      1.501167     6.031121    20.150414  Mg       0.000000     0.000000     0.003426     0.000938    -0.003089
atom      4.598063     8.446908    15.038307  Mg       0.000000     0.000000    -0.003039    -0.002754     0.007325
atom      8.142250     6.643528    20.921309  Mg       0.000000     0.000000    -0.010120    -0.017068    -0.008915
atom      9.526156     7.317250    12.999302  Mg       0.000000     0.000000     0.017293    -0.010620     0.021816
atom     11.480460     2.932789    17.745360  Mg       0.000000     0.000000    -0.013924    -0.001219     0.001971
atom     19.276385     9.583879    12.274125  Mg       0.000000     0.000000    -0.010779    -0.008105    -0.009006
atom     20.843547     7.455076    17.699005  Mg       0.000000     0.000000    -0.000571    -0.002314     0.001866
atom     -5.743865    13.778670    15.533874  Mg       0.000000     0.000000    -0.005168     0.010062    -0.006922
atom     -3.555288    15.551063    19.991785  Mg       0.000000     0.000000     0.008422     0.004969     0.008174
atom      1.632989    12.586943    12.587784  Mg       0.000000     0.000000    -0.004865     0.008390    -0.006221
atom     -0.942773    11.529608    17.509253  Mg       0.000000     0.000000     0.011356    -0.001524     0.009394
atom      6.421552    15.045943    11.855753  Mg       0.000000     0.000000     0.014212     0.013206     0.000886
atom      8.547165    12.373378    17.234316  Mg       0.000000     0.000000     0.003459    -0.002178    -0.000267
atom     13.905762    14.023154    14.643932  Mg       0.000000     0.000000     0.012766    -0.021495    -0.003091
atom     14.143699     8.141527    17.926068  Mg       0.000000     0.000000    -0.000140     0.011794    -0.005169
atom     -8.690246    18.586564    12.132957  Mg       0.000000     0.000000     0.004376    -0.002124     0.006281
atom     -8.637282    16.751775    20.340843  Mg       0.000000     0.000000    -0.012889     0.002176    -0.012523
atom     -2.099788    16.859000    11.151723  Mg       0.000000     0.000000    -0.007159    -0.005297    -0.007762
atom     -0.097065    18.305055    16.402687  Mg       0.000000     0.000000     0.001045    -0.000087     0.000941
atom      3.212578    20.306985    11.916829  Mg       0.000000     0.000000     0.006416    -0.010501     0.011555
atom      5.795563    17.769823    17.632841  Mg       0.000000     0.000000    -0.008744     0.003104    -0.006967
atom      8.240756    23.600571    13.833592  Mg       0.000000     0.000000    -0.005688    -0.004485    -0.005256
atom     11.121305    18.120202    15.374251  Mg       0.000000     0.000000    -0.011732     0.020796    -0.040174
energy    -55.853861
charge      0.000000
end
begin
comment  i =     4870, time =     2435.000, E =       -56.1698666475
lattice        13.179022        0.000000        0.000000
lattice        -6.589511       11.413368        0.000000
lattice         0.000000        0.000000       10.583169
atom     -0.121853     3.378601     2.238413  Mg       0.000000     0.000000     0.002858    -0.003407     0.012483
atom      2.939248     2.141980     7.701483  Mg       0.000000     0.000000     0.005763     0.000202    -0.002394
atom      6.429269     3.764819     2.591433  Mg       0.000000     0.000000    -0.001827    -0.006956     0.000669
atom      9.546428     1.962305     7.359963  Mg       0.000000     0.000000    -0.000768    -0.010802    -0.010349
atom     12.637853     3.258649     2.479744  Mg       0.000000     0.000000    -0.000282     0.003344    -0.004988
atom     15.659548     1.913794     7.315014  Mg       0.000000     0.000000     0.005552    -0.006157     0.005851
atom     18.758442     4.281269     3.255999  Mg       0.000000     0.000000    -0.003543    -0.017413    -0.008161
atom     21.829234     0.970648     7.027538  Mg       0.000000     0.000000    -0.005143     0.011440     0.012933
atom     -3.230858     8.493231     2.944130  Mg       0.000000     0.000000     0.000152     0.018306     0.004161
atom     -0.766681     6.646822     7.843406  Mg       0.000000     0.000000     0.003308     0.004383     0.002921
atom      2.713898     8.128422     2.770859  Mg       0.000000     0.000000     0.003029     0.011321     0.005517
atom      6.298415     7.567638     7.749506  Mg       0.000000     0.000000    -0.002758    -0.001656    -0.001767
atom      8.817296     9.140482     2.761795  Mg       0.000000     0.000000     0.008656     0.002055    -0.000080
atom     12.231321     6.894836     7.455211  Mg       0.000000     0.000000    -0.001167     0.009391     0.006153
atom     15.169820     8.791481     3.062672  Mg       0.000000     0.000000    -0.000313     0.009010    -0.008419
atom     18.312750     7.906582     7.851979  Mg       0.000000     0.000000     0.000630    -0.002596     0.011978
atom     -6.507835    14.338364     1.905449  Mg       0.000000     0.000000     0.007649     0.000821     0.014361
atom     -3.961893    12.984404     7.789865  Mg       0.000000     0.000000     0.011299    -0.006846    -0.011052
atom     -0.554949    13.642582     1.815888  Mg       0.000000     0.000000     0.008269     0.002955     0.009390
atom      3.489456    12.745966     7.123834  Mg       0.000000     0.000000    -0.007695    -0.003262    -0.007035
atom      6.401859    14.429417     2.029629  Mg       0.000000     0.000000    -0.005312    -0.007888     0.002662
atom      9.557867    13.564871     7.319686  Mg       0.000000     0.000000     0.000940    -0.009825    -0.006090
atom     12.630955    14.854584     2.141797  Mg       0.000000     0.000000    -0.003018    -0.004698     0.006791
atom     15.204203    13.109918     7.928825  Mg       0.000000     0.000000     0.002324    -0.007999    -0.007191
atom     -9.019434    20.036883     2.479849  Mg       0.000000     0.000000    -0.000004    -0.001099     0.002110
atom     -6.117778    18.228957     7.315294  Mg       0.000000     0.000000    -0.001021     0.002253    -0.000825
atom     -2.843109    19.961218     2.118356  Mg       0.000000     0.000000    -0.002705    -0.000607     0.008328
atom     -0.002131    18.080949     7.131370  Mg       0.000000     0.000000    -0.000266     0.000135    -0.005171
atom      3.486095    19.122023     2.397474  Mg       0.000000     0.000000    -0.012736     0.007210    -0.001227
atom      6.107332    17.934599     7.599998  Mg       0.000000     0.000000    -0.001670     0.005774     0.000743
atom      9.087506    19.218042     2.684425  Mg       0.000000     0.000000     0.007430     0.004393    -0.009754
atom     13.058547    18.241710     7.183549  Mg       0.000000     0.000000    -0.002536    -0.000061     0.005675
atom     -0.156461     3.094841    12.773752  Mg       0.000000     0.000000     0.006654     0.011496    -0.004754
atom      3.339488     1.661405    17.726981  Mg       0.000000     0.000000     0.002403     0.014002    -0.001383
atom      7.178518     3.560837    11.832539  Mg       0.000000     0.000000    -0.011575     0.001352     0.009564
atom      9.183251     2.166014    17.016315  Mg       0.000000     0.000000     0.003350    -0.002731     0.001584
atom     12.812665     3.296995    12.240153  Mg       0.000000     0.000000    -0.002627     0.007994     0.003462
atom     15.210414     1.438005    17.704887  Mg       0.000000     0.000000     0.007194     0.004262    -0.001774
atom     18.429534     3.566639    12.934301  Mg       0.000000     0.000000     0.008518    -0.001544    -0.004975
atom     22.363561     1.904749    17.754702  Mg       0.000000     0.000000    -0.016693    -0.000988    -0.005649
atom     -2.339626     9.252113    13.129004  Mg       0.000000     0.000000    -0.007079    -0.007011    -0.013228
atom     -0.682388     7.446035    18.142420  Mg       0.000000     0.000000     0.012659    -0.001287    -0.007208
atom      3.451119     8.289090    12.787696  Mg       0.000000     0.000000    -0.009517    -0.001794    -0.004729
atom      6.118994     7.281149    17.641092  Mg       0.000000     0.000000     0.000560    -0.008058     0.004421
atom      9.084814     8.993034    12.783663  Mg       0.000000     0.000000     0.015367    -0.003370    -0.002455
atom     12.722969     7.162541    17.528584  Mg       0.000000     0.000000    -0.007708    -0.002809     0.006221
atom     16.149674     8.913209    13.416245  Mg       0.000000     0.000000    -0.005798     0.004118    -0.015857
atom     18.655123     7.096126    17.935883  Mg       0.000000     0.000000     0.000030    -0.003373     0.008327
atom     -6.531031    14.400246    12.485784  Mg       0.000000     0.000000    -0.001620     0.004068     0.003294
atom     -2.780142    13.192841    16.794850  Mg       0.000000     0.000000    -0.005410     0.000484     0.003462
atom      0.252654    14.822410    11.936438  Mg       0.000000     0.000000     0.004680    -0.010038     0.006124
atom      3.142279    12.101770    17.302216  Mg       0.000000     0.000000    -0.008642     0.001173    -0.001395
atom      6.374594    13.889576    12.046217  Mg       0.000000     0.000000    -0.008303     0.001253     0.000826
atom      9.057521    12.341350    17.563098  Mg       0.000000     0.000000     0.009529     0.000617    -0.003674
atom     11.963296    14.814260    12.517350  Mg       0.000000     0.000000     0.007770    -0.005269     0.005986
atom     15.363712    12.637583    17.753678  Mg       0.000000     0.000000    -0.002588    -0.002306    -0.011024
atom     -8.833301    19.989041    13.135874  Mg       0.000000     0.000000    -0.003529     0.000089    -0.017514
atom     -6.045719    18.201235    17.429251  Mg       0.000000     0.000000     0.001633    -0.002615     0.002768
atom     -2.938906    19.340046    12.147736  Mg       0.000000     0.000000    -0.005726     0.005434     0.004436
atom     -0.297210    18.365929    17.381371  Mg       0.000000     0.000000     0.006876    -0.006289    -0.004591
atom      2.924555    19.812329    12.087429  Mg       0.000000     0.000000     0.007982     0.000167     0.006089
atom      5.747348    17.040931    16.647644  Mg       0.000000     0.000000     0.001361     0.012533     0.005263
atom      9.613748    19.892625    12.573772  Mg       0.000000     0.000000    -0.010124    -0.001652    -0.004476
atom     12.699910    18.479387    17.452421  Mg       0.000000     0.000000    -0.004720    -0.009628     0.004634
energy    -56.169867
charge      0.000000
end
begin
comment  i =     7990, time =     3995.000, E =       -56.1877403632
lattice        13.102335        0.000000        0.000000
lattice        -6.551168       11.346955        0.000000
lattice         0.000000        0.000000       10.521586
atom      0.158892     3.887099     2.573110  Mg       0.000000     0.000000     0.009265    -0.003472     0.003311
atom      2.867152     1.324537     7.725468  Mg       0.000000     0.000000     0.004066     0.008225     0.004026
atom      6.185941     3.392522     2.146119  Mg       0.000000     0.000000    -0.000459    -0.001274     0.005798
atom      9.203913     1.482087     7.601293  Mg       0.000000     0.000000    -0.001620     0.007540    -0.009904
atom     12.221578     3.207007     2.271023  Mg       0.000000     0.000000     0.001535     0.001490     0.001727
atom     15.821345     2.107592     6.996851  Mg       0.000000     0.000000    -0.010068    -0.001982     0.008465
atom     19.311860     4.235552     2.460341  Mg       0.000000     0.000000    -0.007309    -0.010445    -0.010281
atom     21.576926     1.625012     6.877692  Mg       0.000000     0.000000     0.007319     0.005031     0.018584
atom     -2.437998     8.743884     2.091003  Mg       0.000000     0.000000    -0.003693     0.007570     0.009407
atom      0.094327     6.931540     7.982699  Mg       0.000000     0.000000     0.000113    -0.006633    -0.003894
atom      3.283798     9.410909     1.666152  Mg       0.000000     0.000000     0.004856    -0.002212     0.016576
atom      5.888423     6.741698     6.945312  Mg       0.000000     0.000000     0.002152     0.002817     0.000137
atom      9.665986     9.508344     2.198210  Mg       0.000000     0.000000    -0.003677    -0.005840     0.007605
atom     12.277301     7.148299     7.481625  Mg       0.000000     0.000000    -0.003095    -0.000412    -0.001611
atom     15.795502     8.618077     2.231009  Mg       0.000000     0.000000    -0.004734     0.006591     0.001793
atom     18.129027     7.010242     7.166145  Mg       0.000000     0.000000     0.008095     0.003421     0.006267
atom     -5.949593    14.543571     2.975867  Mg       0.000000     0.000000    -0.002097    -0.009657     0.001018
atom     -3.008136    11.482384     7.179584  Mg       0.000000     0.000000     0.000730     0.014744    -0.009768
atom      0.451031    14.157174     1.845300  Mg       0.000000     0.000000    -0.003800     0.008032     0.014442
atom      2.901676    13.227077     6.843477  Mg       0.000000     0.000000     0.002821    -0.006995    -0.001515
atom      6.754603    14.846234     2.407857  Mg       0.000000     0.000000    -0.000315    -0.004743     0.004967
atom      8.654836    12.207598     7.816088  Mg       0.000000     0.000000     0.004479     0.001478    -0.008631
atom     12.953735    14.084608     2.748720  Mg       0.000000     0.000000    -0.002361     0.000867     0.000633
atom     15.753026    12.266549     7.940397  Mg       0.000000     0.000000    -0.003834     0.004476    -0.010281
atom     -9.060723    19.827091     2.919938  Mg       0.000000     0.000000     0.002183    -0.005232    -0.002049
atom     -5.784118    17.141505     8.005092  Mg       0.000000     0.000000     0.002099     0.006853    -0.005770
atom     -3.042582    19.358187     2.286470  Mg       0.000000     0.000000    -0.001899     0.007697     0.015909
atom      0.240428    18.345531     7.855812  Mg       0.000000     0.000000    -0.005299    -0.004612     0.000562
atom      3.047138    19.298815     3.300702  Mg       0.000000     0.000000    -0.002388     0.003316    -0.020478
atom      6.301531    18.291234     7.451259  Mg       0.000000     0.000000     0.006659    -0.005080     0.010151
atom      9.774721    19.848834     2.493899  Mg       0.000000     0.000000    -0.001109    -0.001475    -0.003832
atom     13.022207    17.588504     7.426833  Mg       0.000000     0.000000    -0.008442    -0.003497     0.008850
atom     -0.251427     2.903136    12.617489  Mg       0.000000     0.000000     0.001000     0.005592    -0.002164
atom      2.358343     0.860634    17.820868  Mg       0.000000     0.000000     0.001997     0.006711     0.000826
atom      6.049416     4.141376    12.346002  Mg       0.000000     0.000000    -0.000949    -0.008776    -0.001853
atom      8.968796     1.664592    17.086079  Mg       0.000000     0.000000    -0.003807     0.002717     0.002486
atom     12.149123     3.643320    12.615682  Mg       0.000000     0.000000    -0.000930     0.005894    -0.009442
atom     15.402727     1.969509    17.101692  Mg       0.000000     0.000000    -0.000936     0.002628     0.014373
atom     18.205662     3.041470    12.263630  Mg       0.000000     0.000000     0.009609     0.007431    -0.006829
atom     21.233967     1.677901    17.472770  Mg       0.000000     0.000000     0.003173     0.001782    -0.001748
atom     -3.354150     9.922118    12.260416  Mg       0.000000     0.000000     0.003404    -0.013898     0.011468
atom      0.241241     6.990502    17.050368  Mg       0.000000     0.000000    -0.007010    -0.000616    -0.006922
atom      3.572542     9.317006    12.048751  Mg       0.000000     0.000000    -0.011082    -0.000853     0.000798
atom      5.839298     6.909040    17.457161  Mg       0.000000     0.000000     0.010944     0.002937    -0.009189
atom      8.959414     9.174697    12.661598  Mg       0.000000     0.000000     0.010884    -0.003813     0.004127
atom     12.301311     7.159822    17.480031  Mg       0.000000     0.000000    -0.001249     0.002260    -0.003690
atom     15.861281     8.970847    12.143295  Mg       0.000000     0.000000    -0.010311    -0.005475     0.010233
atom     18.929625     7.497444    17.157091  Mg       0.000000     0.000000     0.000572    -0.007662    -0.002113
atom     -6.160479    14.826456    13.007928  Mg       0.000000     0.000000     0.003661    -0.018004    -0.007325
atom     -3.179408    12.664772    17.978801  Mg       0.000000     0.000000    -0.000315    -0.002141    -0.014274
atom     -0.049495    14.416748    12.163130  Mg       0.000000     0.000000    -0.004504     0.007940     0.001314
atom      2.675122    12.614678    16.929526  Mg       0.000000     0.000000     0.006006     0.000225    -0.010596
atom      5.649506    14.643759    12.051114  Mg       0.000000     0.000000     0.003330     0.003725     0.003406
atom      8.842782    13.158681    17.372725  Mg       0.000000     0.000000    -0.007205    -0.026044    -0.005008
atom     12.195927    14.181450    12.582414  Mg       0.000000     0.000000     0.003943     0.000085    -0.004308
atom     15.643095    12.319072    17.271147  Mg       0.000000     0.000000    -0.006101     0.000344     0.002858
atom     -8.872007    19.365446    13.224511  Mg       0.000000     0.000000    -0.014294     0.007536    -0.011874
atom     -6.081503    17.410141    17.638769  Mg       0.000000     0.000000    -0.004882     0.011635     0.010628
atom     -3.359726    19.984883    12.324176  Mg       0.000000     0.000000     0.005289    -0.002391     0.004195
atom     -0.327714    18.387235    17.762336  Mg       0.000000     0.000000     0.010385    -0.005883    -0.011607
atom      2.798589    19.946433    12.765236  Mg       0.000000     0.000000     0.000013    -0.009569    -0.006176
atom      5.855303    17.891786    17.327791  Mg       0.000000     0.000000    -0.004348     0.003731     0.004699
atom      9.276561    19.415172    12.562648  Mg       0.000000     0.000000    -0.001034    -0.000753    -0.006753
atom     11.729722    17.204668    17.797390  Mg       0.000000     0.000000     0.014571     0.016113    -0.001753
energy    -56.187740
charge      0.000000
end
begin
comment  i =    20330, time =    10165.000, E =       -56.3671580720
lattice        12.829912        0.000000        0.000000
lattice        -6.414956       11.111030        0.000000
lattice         0.000000        0.000000       10.302822
atom     -0.188998     3.428216     2.478243  Mg       0.000000     0.000000     0.002797     0.000929    -0.000632
atom      3.076189     1.920729     7.218649  Mg       0.000000     0.000000     0.000939    -0.001369     0.001037
atom      5.990766     3.585407     2.440692  Mg       0.000000     0.000000     0.000420    -0.000807    -0.000970
atom      9.119368     1.848149     7.165058  Mg       0.000000     0.000000    -0.000073     0.000105     0.002054
atom     12.119116     3.618062     2.263923  Mg       0.000000     0.000000    -0.002180    -0.001496     0.002890
atom     15.148469     1.877632     7.304249  Mg       0.000000     0.000000    -0.000134    -0.002442    -0.000352
atom     17.979705     3.646990     2.454436  Mg       0.000000     0.000000     0.003119    -0.002841     0.002416
atom     21.328957     1.667829     7.513919  Mg       0.000000     0.000000    -0.004025     0.002365    -0.005111
atom     -2.940005     8.711491     2.353895  Mg       0.000000     0.000000    -0.002374     0.000455     0.001747
atom      0.070190     7.011635     7.206100  Mg       0.000000     0.000000     0.000005    -0.000677    -0.000106
atom      3.161555     8.788551     2.364685  Mg       0.000000     0.000000    -0.002093    -0.001542     0.002780
atom      6.294541     7.241392     7.290880  Mg       0.000000     0.000000    -0.002777    -0.003574     0.000223
atom      9.210617     8.879987     2.413483  Mg       0.000000     0.000000    -0.002352     0.000225    -0.000292
atom     12.215739     7.176221     7.055235  Mg       0.000000     0.000000     0.000428    -0.002616     0.005906
atom     15.098453     8.924760     2.393302  Mg       0.000000     0.000000     0.003208    -0.001133     0.000923
atom     18.259745     6.925812     7.346718  Mg       0.000000     0.000000     0.000330     0.002221    -0.001271
atom     -6.113924    13.936495     2.331349  Mg       0.000000     0.000000     0.001651     0.002006     0.001777
atom     -2.999103    12.237578     7.387225  Mg       0.000000     0.000000    -0.000737    -0.001508    -0.003459
atom     -0.118609    13.973250     2.408376  Mg       0.000000     0.000000     0.001180     0.000031     0.001369
atom      3.028877    12.169062     7.342483  Mg       0.000000     0.000000    -0.000621     0.002880     0.000719
atom      5.850058    13.992085     2.597537  Mg       0.000000     0.000000     0.002877     0.001601    -0.001044
atom      9.228478    12.396170     7.462231  Mg       0.000000     0.000000    -0.000595     0.000111    -0.001929
atom     12.105382    14.200909     2.600964  Mg       0.000000     0.000000    -0.000231    -0.001096     0.000185
atom     15.274875    12.287024     7.419887  Mg       0.000000     0.000000    -0.002301    -0.001361    -0.001923
atom     -9.126865    19.264203     2.331105  Mg       0.000000     0.000000    -0.000044     0.000554     0.001109
atom     -6.059157    17.413542     7.243493  Mg       0.000000     0.000000    -0.000446     0.001997    -0.003084
atom     -3.136482    19.311498     2.404092  Mg       0.000000     0.000000     0.000298    -0.001414    -0.000938
atom     -0.145567    17.398757     7.255436  Mg       0.000000     0.000000     0.002372     0.002235    -0.000492
atom      2.886590    19.207891     2.412277  Mg       0.000000     0.000000    -0.000130     0.001629     0.001324
atom      5.991162    17.591438     7.306569  Mg       0.000000     0.000000     0.000375    -0.001386     0.000000
atom      8.914866    19.265591     2.485315  Mg       0.000000     0.000000     0.000942     0.000149     0.000968
atom     12.096115    17.656271     7.458331  Mg       0.000000     0.000000     0.000766    -0.002837    -0.005126
atom     -0.146336     3.499527    12.164104  Mg       0.000000     0.000000     0.004679     0.000760     0.002832
atom      3.051067     1.597869    16.929519  Mg       0.000000     0.000000     0.000471     0.003098     0.000644
atom      6.067772     3.498797    12.118437  Mg       0.000000     0.000000    -0.000646     0.000846     0.000716
atom      9.162105     1.567118    17.005356  Mg       0.000000     0.000000    -0.001713     0.003063     0.000248
atom     12.081753     3.411596    12.174659  Mg       0.000000     0.000000    -0.000291     0.001085    -0.001892
atom     15.134088     1.718432    17.070448  Mg       0.000000     0.000000     0.000576    -0.001760    -0.002342
atom     18.248198     3.434955    12.273344  Mg       0.000000     0.000000    -0.001971    -0.001036     0.000345
atom     21.211893     1.712792    17.148177  Mg       0.000000     0.000000    -0.000213     0.000364    -0.001584
atom     -3.008432     8.768990    12.094795  Mg       0.000000     0.000000    -0.000808    -0.002013     0.002633
atom      0.248337     7.113789    17.037679  Mg       0.000000     0.000000    -0.003898    -0.005379    -0.002144
atom      3.021369     8.751084    12.106720  Mg       0.000000     0.000000     0.000137    -0.001729     0.000965
atom      6.141514     6.958900    17.115331  Mg       0.000000     0.000000     0.000623    -0.001113    -0.002805
atom      9.102957     8.741810    12.253972  Mg       0.000000     0.000000     0.000329    -0.002202    -0.001295
atom     12.126514     7.022158    17.025985  Mg       0.000000     0.000000    -0.001166    -0.000896    -0.000891
atom     15.056044     8.565782    12.249653  Mg       0.000000     0.000000     0.002652     0.001659    -0.003300
atom     18.113268     6.947833    17.069376  Mg       0.000000     0.000000     0.003152     0.002119    -0.001432
atom     -6.138843    13.885806    12.143943  Mg       0.000000     0.000000     0.001425     0.000035     0.001586
atom     -2.907885    12.201691    16.964270  Mg       0.000000     0.000000    -0.003439    -0.001234     0.001406
atom     -0.064653    14.073641    12.271766  Mg       0.000000     0.000000     0.002011    -0.002449    -0.003420
atom      3.065248    12.209259    17.034111  Mg       0.000000     0.000000     0.000621     0.001689     0.000091
atom      6.178888    13.806098    12.232576  Mg       0.000000     0.000000    -0.003310     0.004345    -0.000548
atom      9.033011    12.379488    17.216967  Mg       0.000000     0.000000     0.001000    -0.001505    -0.000119
atom     12.141555    13.876361    12.364252  Mg       0.000000     0.000000     0.000609     0.001045    -0.001961
atom     15.113959    12.227943    17.098871  Mg       0.000000     0.000000     0.001154     0.000376    -0.000534