begin
comment i = 6880, time = 3440.000, E = -56.1685064568
lattice   1.3127302000000000E+01   0.0000000000000000E+00   0.0000000000000000E+00
lattice  -6.5636510000000001E+00   1.1368577000000000E+01   0.0000000000000000E+00
lattice   0.0000000000000000E+00   0.0000000000000000E+00   1.0541634999999999E+01
atom  -2.7688800000000002E-01   3.0170930000000005E+00   2.5705610000000005E+00 Mg   0.0000000000000000E+00   0.0000000000000000E+00   8.8999999999999995E-05   6.2100000000000002E-04   6.6850000000000000E-03
atom   3.4603040000000007E+00   1.8277270000000005E+00   7.2785300000000008E+00 Mg   0.0000000000000000E+00   0.0000000000000000E+00  -2.2710000000000000E-03  -3.8560000000000001E-03   3.9430000000000003E-03
atom   6.5944620000000009E+00   3.5231450000000004E+00   2.3302160000000005E+00 Mg   0.0000000000000000E+00   0.0000000000000000E+00  -1.0279999999999999E-02   1.6507000000000001E-02   4.1570000000000001E-03
atom   9.7733930000000004E+00   1.8414100000000002E+00   6.8766940000000005E+00 Mg   0.0000000000000000E+00   0.0000000000000000E+00   2.1830000000000000E-03   1.2949999999999999E-03   3.1700000000000001E-03
atom  -4.8481699999999933E-01   4.0671499999999998E+00   1.9100010000000001E+00 Mg   0.0000000000000000E+00   0.0000000000000000E+00  -2.3839999999999998E-03  -1.2080000000000001E-03   2.5260000000000000E-03
atom   3.0180710000000017E+00   1.5556200000000002E+00   6.9691860000000005E+00 Mg   0.0000000000000000E+00   0.0000000000000000E+00  -8.8660000000000006E-03   1.0200000000000001E-03   2.3879999999999999E-03
atom   5.2223959999999989E+00   3.5728970000000011E+00   2.2533470000000002E+00 Mg   0.0000000000000000E+00   0.0000000000000000E+00   3.1510000000000002E-03   6.7470000000000004E-03  -3.2529999999999998E-03
atom   8.6452330000000011E+00   1.2133620000000003E+00   7.9423660000000007E+00 Mg   0.0000000000000000E+00   0.0000000000000000E+00   7.3350000000000004E-03   8.3739999999999995E-03  -1.7155000000000000E-02
atom  -2.3277830000000006E+00   8.3446960000000026E+00   2.5087130000000006E+00 Mg   0.0000000000000000E+00   0.0000000000000000E+00  -1.3805000000000000E-02   4.8609999999999999E-03  -2.6619999999999999E-03
atom   3.8393099999999980E-01   6.9812990000000017E+00   7.4910079999999999E+00 Mg   0.0000000000000000E+00   0.0000000000000000E+00   1.3500000000000001E-03  -2.9759999999999999E-03   3.5959999999999998E-03
atom   3.1375420000000007E+00   9.0520080000000025E+00   2.7958510000000003E+00 Mg   0.0000000000000000E+00   0.0000000000000000E+00   7.8350000000000000E-03  -4.5680000000000000E-03   1.7780000000000001E-03
atom   6.6876800000000012E+00   6.6811330000000009E+00   7.6804750000000004E+00 Mg   0.0000000000000000E+00   0.0000000000000000E+00  -8.3400000000000000E-04   9.6310000000000007E-03  -7.0520000000000001E-03
atom  -3.8409320000000005E+00   9.1754310000000014E+00   2.3770449999999999E+00 Mg   0.0000000000000000E+00   0.0000000000000000E+00   3.7820000000000002E-03  -6.0679999999999996E-03   4.2900000000000004E-03
atom  -5.3552099999999925E-01   7.5191150000000011E+00   7.7239580000000005E+00 Mg   0.0000000000000000E+00   0.0000000000000000E+00   3.0320000000000000E-03  -1.2910000000000000E-03  -2.0074999999999999E-02
atom   3.0841560000000019E+00   8.9469360000000027E+00   2.7358940000000005E+00 Mg   0.0000000000000000E+00   0.0000000000000000E+00  -1.1839999999999999E-03   2.7070000000000002E-03  -8.4599999999999996E-04
atom   6.1880330000000008E+00   6.7632490000000010E+00   7.4051250000000000E+00 Mg   0.0000000000000000E+00   0.0000000000000000E+00  -3.9709999999999997E-03   1.7400000000000000E-04  -3.9529999999999999E-03
atom   5.1429899999999995E-01   3.5643030000000024E+00   2.2681190000000004E+00 Mg   0.0000000000000000E+00   0.0000000000000000E+00   1.7600000000000000E-04  -9.5250000000000005E-03   9.1200000000000005E-04
atom   3.3499769999999995E+00   1.0044570000000024E+00   7.4545270000000006E+00 Mg   0.0000000000000000E+00   0.0000000000000000E+00  -6.7609999999999996E-03  -2.3319999999999999E-03  -4.4310000000000000E-03
atom   6.2379029999999993E+00   2.6192910000000027E+00   2.6913740000000006E+00 Mg   0.0000000000000000E+00   0.0000000000000000E+00   1.4930000000000000E-03   4.0910000000000000E-03   1.9130000000000000E-03
atom   8.7946129999999982E+00   1.3787090000000026E+00   7.8347150000000010E+00 Mg   0.0000000000000000E+00   0.0000000000000000E+00   1.1934999999999999E-02  -2.1519999999999998E-03   1.7619999999999999E-03
atom  -9.6828000000001455E-02   2.5876040000000029E+00   2.6663619999999999E+00 Mg   0.0000000000000000E+00   0.0000000000000000E+00  -3.7580000000000001E-03   8.4309999999999993E-03   6.1760000000000001E-03
atom   2.4501460000000002E+00   1.4793210000000028E+00   8.0577830000000024E+00 Mg   0.0000000000000000E+00   0.0000000000000000E+00   3.0409999999999999E-03  -5.3280000000000003E-03  -7.6519999999999999E-03
atom   5.7935870000000014E+00   3.2770680000000016E+00   2.7223820000000001E+00 Mg   0.0000000000000000E+00   0.0000000000000000E+00  -4.4999999999999999E-04  -2.1510000000000001E-03   4.1409999999999997E-03
atom   8.6746429999999997E+00   1.2385490000000017E+00   7.2409170000000005E+00 Mg   0.0000000000000000E+00   0.0000000000000000E+00   2.0820000000000001E-03   3.1340000000000001E-03  -7.1100000000000000E-03
atom  -2.1246190000000005E+00   8.4079270000000008E+00   2.4175900000000001E+00 Mg   0.0000000000000000E+00   0.0000000000000000E+00  -1.7054000000000000E-02   4.3290000000000004E-03  -1.0579999999999999E-03
atom   7.8007599999999966E-01   6.7263420000000034E+00   7.4630420000000006E+00 Mg   0.0000000000000000E+00   0.0000000000000000E+00  -7.7609999999999997E-03   4.8719999999999996E-03  -1.3883000000000000E-02
atom   3.2339739999999981E+00   8.9650470000000038E+00   2.2664270000000006E+00 Mg   0.0000000000000000E+00   0.0000000000000000E+00   1.6962999999999999E-02  -1.3726000000000000E-02  -4.9049999999999996E-03
atom   6.2736509999999992E+00   6.6632830000000043E+00   7.4030400000000007E+00 Mg   0.0000000000000000E+00   0.0000000000000000E+00   4.3420000000000004E-03  -4.4299999999999998E-04   2.6689999999999999E-03
atom  -3.7616790000000009E+00   7.9530570000000029E+00   2.7138749999999998E+00 Mg   0.0000000000000000E+00   0.0000000000000000E+00  -2.2820000000000002E-03   1.5410000000000001E-03   1.9449999999999999E-03
atom  -8.3030100000000107E-01   6.2148930000000009E+00   8.2670370000000020E+00 Mg   0.0000000000000000E+00   0.0000000000000000E+00  -6.3400000000000001E-04   2.7880000000000001E-03  -1.6864000000000001E-02
atom   1.8225239999999996E+00   8.6733410000000024E+00   2.5741830000000001E+00 Mg   0.0000000000000000E+00   0.0000000000000000E+00   7.7149999999999996E-03  -1.2315000000000000E-02   5.5799999999999999E-03
atom   6.2580380000000018E+00   6.6886400000000030E+00   7.8585120000000011E+00 Mg   0.0000000000000000E+00   0.0000000000000000E+00   4.7289999999999997E-03  -3.6099999999999999E-03  -1.2191000000000000E-02
atom  -2.0440399999999981E-01   3.4687610000000006E+00   2.0670860000000015E+00 Mg   0.0000000000000000E+00   0.0000000000000000E+00  -1.0139999999999999E-03  -2.4099999999999998E-03   2.9599999999999998E-04
atom   2.3818000000000006E+00   2.4972710000000005E+00   7.2354130000000030E+00 Mg   0.0000000000000000E+00   0.0000000000000000E+00   1.1398000000000000E-02  -1.3044000000000000E-02  -3.4069999999999999E-03
atom   5.4318350000000013E+00   4.2669540000000001E+00   2.0642390000000019E+00 Mg   0.0000000000000000E+00   0.0000000000000000E+00   6.7999999999999996E-03  -1.6513000000000000E-02   3.2090000000000000E-03
atom   8.5907820000000008E+00   2.2618010000000006E+00   6.8239410000000023E+00 Mg   0.0000000000000000E+00   0.0000000000000000E+00   4.3579999999999999E-03  -4.5160000000000000E-03  -9.5940000000000001E-03
atom  -4.8137999999999798E-01   3.4817360000000006E+00   8.8402100000000183E-01 Mg   0.0000000000000000E+00   0.0000000000000000E+00   1.1570000000000000E-03  -8.3059999999999991E-03   9.1170000000000001E-03
atom   2.3144480000000005E+00   1.8018340000000004E+00   6.7718520000000000E+00 Mg   0.0000000000000000E+00   0.0000000000000000E+00  -3.3300000000000001E-03  -2.8790000000000000E-03  -4.6589999999999999E-03
atom   5.6059880000000000E+00   3.4965350000000011E+00   1.5183670000000014E+00 Mg   0.0000000000000000E+00   0.0000000000000000E+00  -6.3949999999999996E-03  -2.7720000000000002E-03   1.1733000000000000E-02
atom   7.9809049999999990E+00   1.2788280000000003E+00   6.7391630000000040E+00 Mg   0.0000000000000000E+00   0.0000000000000000E+00   4.6290000000000003E-03   3.1089999999999998E-03  -4.4370000000000000E-03
atom  -3.0844210000000003E+00   8.5762350000000023E+00   1.9637050000000018E+00 Mg   0.0000000000000000E+00   0.0000000000000000E+00   1.6559999999999999E-03   8.1309999999999993E-03  -2.2209999999999999E-03
atom   2.4593300000000062E-01   7.3951240000000009E+00   6.7807640000000022E+00 Mg   0.0000000000000000E+00   0.0000000000000000E+00  -7.3850000000000001E-03   2.4359999999999998E-03  -5.9400000000000002E-04
atom   3.9333209999999994E+00   9.2982060000000022E+00   1.8733000000000009E+00 Mg   0.0000000000000000E+00   0.0000000000000000E+00  -1.4503000000000000E-02   7.7000000000000002E-03  -5.1279999999999997E-03
atom   5.8365760000000000E+00   7.8872880000000007E+00   6.8316050000000015E+00 Mg   0.0000000000000000E+00   0.0000000000000000E+00   1.1827000000000001E-02  -8.4840000000000002E-03   5.9630000000000004E-03
atom  -3.1373940000000009E+00   8.5756270000000008E+00   1.8112520000000021E+00 Mg   0.0000000000000000E+00   0.0000000000000000E+00  -1.7247999999999999E-02   1.5601000000000000E-02  -6.9569999999999996E-03
atom  -8.3908300000000080E-01   6.5438680000000007E+00   5.7297020000000014E+00 Mg   0.0000000000000000E+00   0.0000000000000000E+00   8.4040000000000000E-03   9.6500000000000004E-04   2.0856000000000000E-02
atom   2.5160599999999995E+00   9.6552810000000022E+00   1.4716940000000014E+00 Mg   0.0000000000000000E+00   0.0000000000000000E+00   9.0100000000000006E-03  -1.4250000000000001E-02   9.0250000000000000E-03
atom   4.9300060000000006E+00   7.4745980000000021E+00   6.5981540000000036E+00 Mg   0.0000000000000000E+00   0.0000000000000000E+00   4.0920000000000002E-03  -1.1948000000000000E-02   4.4990000000000004E-03
atom   1.5707699999999905E-01   3.2587990000000024E+00   8.0226300000000128E-01 Mg   0.0000000000000000E+00   0.0000000000000000E+00   1.0319999999999999E-03  -2.9150000000000001E-03   2.1537000000000001E-02
atom   3.3253299999999997E+00   6.5068600000000221E-01   6.7165970000000028E+00 Mg   0.0000000000000000E+00   0.0000000000000000E+00  -3.3560000000000000E-03   5.1560000000000000E-03   5.6090000000000003E-03
atom   5.6409380000000002E+00   3.2410590000000017E+00   2.3700730000000036E+00 Mg   0.0000000000000000E+00   0.0000000000000000E+00   9.3220000000000004E-03  -2.7499999999999998E-03  -4.1460000000000004E-03
atom   9.5274390000000011E+00   1.1949750000000015E+00   7.6433580000000019E+00 Mg   0.0000000000000000E+00   0.0000000000000000E+00  -6.1700000000000004E-04   1.0679999999999999E-03  -1.2090000000000000E-02
atom  -4.6193199999999807E-01   2.9961520000000013E+00   2.2984390000000015E+00 Mg   0.0000000000000000E+00   0.0000000000000000E+00   7.1800000000000000E-04   7.5600000000000005E-04   7.7450000000000001E-03
atom   3.1737690000000005E+00   8.5384400000000160E-01   6.8310960000000032E+00 Mg   0.0000000000000000E+00   0.0000000000000000E+00  -4.3740000000000003E-03   1.5070000000000001E-03  -4.7399999999999997E-04
atom   6.2631690000000022E+00   2.6871330000000011E+00   2.2905940000000009E+00 Mg   0.0000000000000000E+00   0.0000000000000000E+00  -9.0390000000000002E-03   9.6970000000000008E-03   3.0170000000000002E-03
atom   9.0674920000000014E+00   1.0864280000000013E+00   7.2974200000000007E+00 Mg   0.0000000000000000E+00   0.0000000000000000E+00  -1.1490000000000001E-03   4.3169999999999997E-03  -3.0260000000000000E-03
atom  -2.6074340000000009E+00   8.2085780000000046E+00   2.4059900000000018E+00 Mg   0.0000000000000000E+00   0.0000000000000000E+00  -7.3899999999999999E-03   8.0499999999999999E-03  -4.3059999999999999E-03
atom   6.9710699999999903E-01   6.7101920000000046E+00   6.3721290000000028E+00 Mg   0.0000000000000000E+00   0.0000000000000000E+00   1.4289999999999999E-03  -7.4929999999999997E-03   8.6789999999999992E-03
atom   3.3250360000000012E+00   8.6857960000000016E+00   1.6992550000000011E+00 Mg   0.0000000000000000E+00   0.0000000000000000E+00  -1.9999999999999999E-06   6.4000000000000003E-03   2.6120000000000002E-03
atom   6.7165860000000004E+00   6.3330150000000041E+00   7.4423520000000023E+00 Mg   0.0000000000000000E+00   0.0000000000000000E+00  -1.1228999999999999E-02   1.8200000000000000E-03  -5.2329999999999998E-03
atom  -3.9700729999999984E+00   8.2079280000000026E+00   2.1588580000000022E+00 Mg   0.0000000000000000E+00   0.0000000000000000E+00   4.4840000000000001E-03   2.2829999999999999E-03   1.8050000000000000E-03
atom  -8.8490200000000052E-01   6.1018620000000006E+00   7.1439080000000024E+00 Mg   0.0000000000000000E+00   0.0000000000000000E+00   1.1273999999999999E-02   4.7310000000000000E-03  -3.0899999999999999E-03
atom   3.0459059999999996E+00   7.8335380000000026E+00   1.4299490000000010E+00 Mg   0.0000000000000000E+00   0.0000000000000000E+00  -2.9970000000000001E-03  -2.7750000000000001E-03   2.6914000000000000E-02
atom   5.7394620000000005E+00   6.1432050000000036E+00   7.3185610000000008E+00 Mg   0.0000000000000000E+00   0.0000000000000000E+00  -4.9799999999999996E-04   7.7559999999999999E-03  -7.7980000000000002E-03
energy  -5.6168506000000001E+01
charge   0.0000000000000000E+00
end
begin
comment i = 6220, time = 3110.000, E = -56.1600771442
lattice   1.3083874000000000E+01   0.0000000000000000E+00   0.0000000000000000E+00
lattice  -6.5419369999999999E+00   1.1330966999999999E+01   0.0000000000000000E+00
lattice   0.0000000000000000E+00   0.0000000000000000E+00   1.0506762000000000E+01
atom  -4.5382999999999990E-01   3.4325769999999993E+00   3.2211499999999997E+00 Mg   0.0000000000000000E+00   0.0000000000000000E+00   3.3800000000000002E-03   1.2669000000000000E-02  -7.4599999999999996E-03
atom   2.4691869999999994E+00   1.5413319999999995E+00   7.6015839999999999E+00 Mg   0.0000000000000000E+00   0.0000000000000000E+00   1.1728000000000001E-02   8.5800000000000004E-04   8.3669999999999994E-03
atom   6.3593969999999995E+00   3.2696539999999992E+00   2.4389360000000000E+00 Mg   0.0000000000000000E+00   0.0000000000000000E+00   3.6340000000000001E-03   2.6120000000000002E-03   1.6497999999999999E-02
atom   9.5595449999999982E+00   1.3304159999999998E+00   7.2279949999999999E+00 Mg   0.0000000000000000E+00   0.0000000000000000E+00  -4.3049999999999998E-03   5.8230000000000001E-03   4.5899999999999999E-04
atom  -6.3846000000000125E-01   2.7679709999999997E+00   1.9679800000000001E+00 Mg   0.0000000000000000E+00   0.0000000000000000E+00  -4.3790000000000001E-03   1.0829000000000000E-02   6.3899999999999998E-03
atom   2.9513769999999986E+00   2.7508119999999994E+00   7.7415189999999994E+00 Mg   0.0000000000000000E+00   0.0000000000000000E+00  -1.1223000000000000E-02  -1.4820000000000000E-02   1.2264000000000001E-02
atom   5.2658079999999998E+00   3.4352799999999997E+00   3.3022689999999999E+00 Mg   0.0000000000000000E+00   0.0000000000000000E+00   8.3970000000000000E-03   1.3257000000000000E-02  -1.6976000000000002E-02
atom   8.3650599999999997E+00   1.5454489999999999E+00   7.6900709999999997E+00 Mg   0.0000000000000000E+00   0.0000000000000000E+00   3.1670000000000001E-03   6.0410000000000004E-03   1.1483999999999999E-02
atom  -3.0208879999999994E+00   8.8833439999999975E+00   3.0336340000000002E+00 Mg   0.0000000000000000E+00   0.0000000000000000E+00  -3.3700000000000002E-03  -4.8440000000000002E-03  -8.4379999999999993E-03
atom  -2.4685700000000005E-01   6.7962649999999991E+00   7.7654849999999991E+00 Mg   0.0000000000000000E+00   0.0000000000000000E+00   9.1699999999999995E-04   4.2389999999999997E-03  -3.1870000000000002E-03
atom   3.0751360000000005E+00   8.9702519999999986E+00   2.3720119999999998E+00 Mg   0.0000000000000000E+00   0.0000000000000000E+00   1.0600000000000000E-04  -5.8680000000000000E-03   2.7000000000000001E-03
atom   5.7450039999999998E+00   6.6850109999999994E+00   7.3415629999999990E+00 Mg   0.0000000000000000E+00   0.0000000000000000E+00   1.2750000000000001E-03  -1.8090000000000001E-03  -5.9969999999999997E-03
atom  -3.9060880000000018E+00   8.2802459999999982E+00   2.0502929999999999E+00 Mg   0.0000000000000000E+00   0.0000000000000000E+00   3.6809999999999998E-03   4.2950000000000002E-03  -2.4320000000000001E-03
atom  -5.7842900000000341E-01   6.6517019999999993E+00   6.9896089999999997E+00 Mg   0.0000000000000000E+00   0.0000000000000000E+00  -8.7790000000000003E-03   8.0459999999999993E-03   1.2570000000000001E-03
atom   2.2722919999999980E+00   8.6197459999999975E+00   2.4931239999999999E+00 Mg   0.0000000000000000E+00   0.0000000000000000E+00  -4.3039999999999997E-03   4.4299999999999998E-04   3.6660000000000000E-03
atom   5.5055819999999933E+00   7.8491679999999988E+00   7.9757100000000003E+00 Mg   0.0000000000000000E+00   0.0000000000000000E+00  -2.7789999999999998E-03  -1.0820000000000001E-03  -1.1290000000000000E-03
atom   4.9723000000001426E-02   2.9199449999999971E+00   2.6090170000000001E+00 Mg   0.0000000000000000E+00   0.0000000000000000E+00   1.6530000000000000E-03  -1.5659999999999999E-03   4.4630000000000000E-03
atom   3.7525420000000005E+00   1.6283649999999987E+00   6.9116989999999996E+00 Mg   0.0000000000000000E+00   0.0000000000000000E+00   1.8330000000000000E-03   5.6680000000000003E-03   8.5079999999999999E-03
atom   6.4873370000000010E+00   2.5062999999999986E+00   1.8116019999999999E+00 Mg   0.0000000000000000E+00   0.0000000000000000E+00   4.2820000000000002E-03  -6.0099999999999997E-04   4.0400000000000001E-04
atom   9.6796959999999999E+00   1.8042869999999998E+00   7.4185460000000001E+00 Mg   0.0000000000000000E+00   0.0000000000000000E+00  -5.8360000000000000E-03  -1.2160000000000001E-03  -8.6379999999999998E-03
atom   7.8995999999999858E-02   2.3611749999999998E+00   1.9359630000000001E+00 Mg   0.0000000000000000E+00   0.0000000000000000E+00  -8.2089999999999993E-03   6.9459999999999999E-03   2.5300000000000002E-04
atom   2.2138219999999986E+00   5.9928299999999846E-01   7.3216400000000004E+00 Mg   0.0000000000000000E+00   0.0000000000000000E+00   7.1939999999999999E-03   1.6390000000000000E-03  -9.7179999999999992E-03
atom   5.4300100000000002E+00   3.1934439999999986E+00   2.5723720000000001E+00 Mg   0.0000000000000000E+00   0.0000000000000000E+00   5.3740000000000003E-03  -3.6560000000000000E-03  -4.5919999999999997E-03
atom   8.1763840000000005E+00   1.4994689999999995E+00   7.3823819999999998E+00 Mg   0.0000000000000000E+00   0.0000000000000000E+00   9.2479999999999993E-03  -1.1155999999999999E-02  -6.0470000000000003E-03
atom  -2.4252089999999979E+00   8.3120919999999980E+00   2.6554169999999999E+00 Mg   0.0000000000000000E+00   0.0000000000000000E+00  -7.6700000000000000E-04   1.5799999999999999E-04  -9.5639999999999996E-03
atom   1.2480800000000038E-01   6.7257429999999969E+00   7.5278820000000000E+00 Mg   0.0000000000000000E+00   0.0000000000000000E+00   2.4280000000000000E-03  -2.0620000000000000E-03   4.1190000000000003E-03
atom   4.1226739999999999E+00   7.4076479999999973E+00   3.0428649999999999E+00 Mg   0.0000000000000000E+00   0.0000000000000000E+00  -3.2560000000000002E-03   4.7790000000000003E-03   6.0000000000000002E-06
atom   7.6868069999999991E+00   7.3329819999999977E+00   8.0030560000000008E+00 Mg   0.0000000000000000E+00   0.0000000000000000E+00  -8.9479999999999994E-03  -4.3629999999999997E-03  -2.0903999999999999E-02
atom  -2.8027179999999996E+00   8.6914579999999955E+00   2.2649670000000000E+00 Mg   0.0000000000000000E+00   0.0000000000000000E+00  -1.4779999999999999E-03  -1.6202000000000001E-02  -2.2000000000000001E-04
atom   3.3153400000000061E-01   6.6897519999999968E+00   6.6894019999999994E+00 Mg   0.0000000000000000E+00   0.0000000000000000E+00  -8.8649999999999996E-03  -1.1037999999999999E-02   6.7460000000000003E-03
atom   3.2307049999999973E+00   8.6539070000000002E+00   2.5451020000000000E+00 Mg   0.0000000000000000E+00   0.0000000000000000E+00  -1.0490000000000000E-03  -7.1230000000000000E-03  -1.3920000000000000E-02
atom   5.9807879999999978E+00   6.5772909999999989E+00   7.1763509999999995E+00 Mg   0.0000000000000000E+00   0.0000000000000000E+00  -3.3500000000000001E-03  -3.4000000000000002E-04   1.0122000000000001E-02
atom   8.0961600000000011E-01   3.9403989999999993E+00   2.4094630000000006E+00 Mg   0.0000000000000000E+00   0.0000000000000000E+00  -1.1663000000000000E-02  -1.5400000000000000E-04   3.6500000000000000E-03
atom   2.6568999999999998E+00   2.7953669999999997E+00   8.0737940000000012E+00 Mg   0.0000000000000000E+00   0.0000000000000000E+00  -6.8060000000000004E-03  -9.8399999999999998E-03  -1.5606999999999999E-02
atom   6.2483160000000000E+00   3.2663619999999995E+00   1.9850790000000000E+00 Mg   0.0000000000000000E+00   0.0000000000000000E+00   1.0850000000000000E-03  -1.1429999999999999E-03  -5.0920000000000002E-03
atom   8.4924049999999998E+00   1.8133569999999999E+00   7.0295630000000013E+00 Mg   0.0000000000000000E+00   0.0000000000000000E+00   5.9779999999999998E-03  -8.5140000000000007E-03  -7.2719999999999998E-03
atom  -1.0617970000000019E+00   3.2097869999999991E+00   1.7676099999999999E+00 Mg   0.0000000000000000E+00   0.0000000000000000E+00   7.3020000000000003E-03  -7.2300000000000001E-04  -3.2580000000000000E-03
atom   2.0812620000000006E+00   1.4921159999999998E+00   6.7332379999999983E+00 Mg   0.0000000000000000E+00   0.0000000000000000E+00   3.5149999999999999E-03   7.5170000000000002E-03  -5.3280000000000003E-03
atom   5.1944459999999966E+00   3.9094319999999994E+00   2.3729920000000004E+00 Mg   0.0000000000000000E+00   0.0000000000000000E+00   6.3699999999999998E-03   4.0530000000000002E-03  -1.7710000000000000E-03
atom   7.9478159999999987E+00   2.0499100000000001E+00   7.3760780000000006E+00 Mg   0.0000000000000000E+00   0.0000000000000000E+00   8.3809999999999996E-03  -8.3320000000000009E-03  -2.0880000000000000E-03
atom  -2.6984930000000000E+00   9.5939899999999980E+00   1.6407089999999993E+00 Mg   0.0000000000000000E+00   0.0000000000000000E+00  -3.8010000000000001E-03   1.0820000000000001E-03   5.0229999999999997E-03
atom  -7.0619699999999985E-01   7.3588659999999990E+00   7.1280659999999978E+00 Mg   0.0000000000000000E+00   0.0000000000000000E+00   7.1170000000000001E-03  -1.8350000000000000E-03  -4.2249999999999996E-03
atom   2.9512769999999997E+00   9.2669979999999974E+00   1.2674329999999994E+00 Mg   0.0000000000000000E+00   0.0000000000000000E+00   7.9229999999999995E-03   3.4390000000000002E-03   1.0383999999999999E-02
atom   5.8247400000000003E+00   7.0586419999999990E+00   6.1975299999999978E+00 Mg   0.0000000000000000E+00   0.0000000000000000E+00  -4.3199999999999998E-04   5.9899999999999997E-03   2.1240000000000000E-03
atom  -3.9559040000000030E+00   8.4473729999999989E+00   1.2042470000000010E+00 Mg   0.0000000000000000E+00   0.0000000000000000E+00   3.1849999999999999E-03   3.1920000000000000E-03   5.3689999999999996E-03
atom  -1.3283050000000018E+00   6.6882909999999995E+00   6.2384199999999987E+00 Mg   0.0000000000000000E+00   0.0000000000000000E+00   5.7520000000000002E-03   1.1340000000000000E-03   6.5290000000000001E-03
atom   2.7832479999999982E+00   9.2917699999999979E+00   2.6484890000000001E+00 Mg   0.0000000000000000E+00   0.0000000000000000E+00  -4.0650000000000000E-03  -3.7820000000000002E-03  -2.2339999999999999E-03
atom   5.1506519999999973E+00   6.5797199999999991E+00   7.4573540000000005E+00 Mg   0.0000000000000000E+00   0.0000000000000000E+00  -5.1609999999999998E-03   1.0536000000000000E-02   1.6249999999999999E-03
atom  -1.0145699999999865E-01   2.9971089999999974E+00   1.6983819999999992E+00 Mg   0.0000000000000000E+00   0.0000000000000000E+00   1.4938000000000000E-02   1.5870000000000001E-03   2.4610000000000001E-03
atom   2.8190110000000006E+00   6.0486199999999846E-01   6.8144479999999996E+00 Mg   0.0000000000000000E+00   0.0000000000000000E+00   1.4419999999999999E-03   1.9959999999999999E-03  -4.0699999999999998E-03
atom   6.5176809999999987E+00   4.3341799999999981E+00   2.0049889999999992E+00 Mg   0.0000000000000000E+00   0.0000000000000000E+00   1.3226000000000000E-02  -3.4903999999999998E-02   8.7299999999999997E-04
atom   1.0051128000000000E+01   1.0058929999999973E+00   6.6183389999999997E+00 Mg   0.0000000000000000E+00   0.0000000000000000E+00  -5.4809999999999998E-03   1.0110000000000000E-03  -7.1929999999999997E-03
atom   9.8981999999999015E-02   3.1076089999999983E+00   1.3265999999999991E+00 Mg   0.0000000000000000E+00   0.0000000000000000E+00  -4.2189999999999997E-03   1.4920000000000001E-03   6.9920000000000000E-03
atom   3.2900399999999972E+00   7.9927800000000038E-01   5.9793209999999997E+00 Mg   0.0000000000000000E+00   0.0000000000000000E+00  -7.5750000000000001E-03  -3.2000000000000003E-04   6.1980000000000004E-03
atom   6.1282549999999967E+00   2.9519689999999992E+00   1.4780999999999986E+00 Mg   0.0000000000000000E+00   0.0000000000000000E+00  -1.3459000000000000E-02   4.3280000000000002E-03   9.6830000000000006E-03
atom   8.8258579999999967E+00   9.6089499999999983E-01   7.5482199999999979E+00 Mg   0.0000000000000000E+00   0.0000000000000000E+00  -3.7740000000000000E-03   6.5499999999999998E-04  -7.9550000000000003E-03
atom  -2.5753529999999993E+00   8.2638499999999961E+00   2.5518070000000006E+00 Mg   0.0000000000000000E+00   0.0000000000000000E+00   8.5400000000000005E-04   2.4610000000000001E-03  -1.9729999999999999E-03
atom   1.2360530000000005E+00   5.8680129999999968E+00   7.2180459999999984E+00 Mg   0.0000000000000000E+00   0.0000000000000000E+00  -5.1869999999999998E-03   6.5719999999999997E-03  -5.8030000000000000E-03
atom   3.4116900000000014E+00   8.1409179999999974E+00   1.8529759999999995E+00 Mg   0.0000000000000000E+00   0.0000000000000000E+00  -1.4605000000000000E-02   1.6707000000000000E-02   4.0530000000000002E-03
atom   6.9599559999999991E+00   6.8113289999999997E+00   6.8045349999999996E+00 Mg   0.0000000000000000E+00   0.0000000000000000E+00  -5.5189999999999996E-03  -4.7000000000000002E-03   8.1279999999999998E-03
atom  -2.8515899999999998E+00   8.7606959999999994E+00   1.6336150000000014E+00 Mg   0.0000000000000000E+00   0.0000000000000000E+00  -1.2714000000000000E-02   3.7550000000000001E-03   9.4560000000000009E-03
atom  -4.2466099999999940E-01   6.3788850000000004E+00   6.2547839999999981E+00 Mg   0.0000000000000000E+00   0.0000000000000000E+00   5.8600000000000004E-04  -3.6779999999999998E-03   1.3032999999999999E-02
atom   2.1197880000000002E+00   8.6594989999999985E+00   2.0186519999999986E+00 Mg   0.0000000000000000E+00   0.0000000000000000E+00   2.8393000000000002E-02   1.5120000000000001E-03  -4.5110000000000003E-03
atom   5.5198759999999982E+00   6.4867659999999976E+00   6.7269079999999999E+00 Mg   0.0000000000000000E+00   0.0000000000000000E+00   1.0160000000000000E-03  -1.6479999999999999E-03   4.3179999999999998E-03
energy  -5.6160077000000001E+01
charge   0.0000000000000000E+00
end
begin
comment i = 8140, time = 4070.000, E = -55.7242916889
lattice   1.3765558000000000E+01   0.0000000000000000E+00   0.0000000000000000E+00
lattice  -6.8827790000000002E+00   1.1921322999999999E+01   0.0000000000000000E+00
lattice   0.0000000000000000E+00   0.0000000000000000E+00   1.1054175000000001E+01
atom   2.7862100000000012E-01   9.9764520000000019E+00   6.5304580000000003E+00 Mg   0.0000000000000000E+00   0.0000000000000000E+00   7.9690000000000004E-03  -6.2870000000000001E-03  -1.4361000000000001E-02
atom   7.1479100000000022E+00   9.0396960000000011E+00   5.6280399999999995E+00 Mg   0.0000000000000000E+00   0.0000000000000000E+00  -1.2722000000000001E-02  -1.8029000000000000E-02  -1.7000000000000001E-04
atom   8.6221540000000001E+00   8.6406050000000025E+00   8.8556000000000035E-01 Mg   0.0000000000000000E+00   0.0000000000000000E+00   7.3410000000000003E-03  -3.2750000000000001E-03  -1.4215999999999999E-02
atom  -2.1552520000000004E+00   4.2710520000000010E+00   9.6052800000000049E-01 Mg   0.0000000000000000E+00   0.0000000000000000E+00   1.6633999999999999E-02  -1.5547999999999999E-02  -5.8459999999999996E-03
atom  -2.3227950000000002E+00   5.2851360000000005E+00   5.2882090000000002E+00 Mg   0.0000000000000000E+00   0.0000000000000000E+00   2.4819999999999998E-03  -1.0305000000000000E-02   9.2809999999999993E-03
atom   8.0076190000000000E+00   8.8429310000000019E+00   1.0052894999999999E+01 Mg   0.0000000000000000E+00   0.0000000000000000E+00   2.6474999999999999E-02   1.8238000000000001E-02   3.6210000000000001E-03
atom  -1.3255000000000008E-01   8.3035420000000002E+00   9.5781050000000008E+00 Mg   0.0000000000000000E+00   0.0000000000000000E+00  -1.4307000000000000E-02  -6.1939999999999999E-03  -5.3839999999999999E-03
atom   1.8907180000000017E+00   2.6034000000000002E-02   1.0145083000000000E+01 Mg   0.0000000000000000E+00   0.0000000000000000E+00  -7.7499999999999999E-03   7.3350000000000004E-03  -2.9780000000000002E-03
atom  -1.1268790000000000E+00   4.2668280000000003E+00   6.9458000000000006E-02 Mg   0.0000000000000000E+00   0.0000000000000000E+00  -1.1629000000000000E-02   9.2079999999999992E-03   2.5595000000000000E-02
atom   3.3322089999999998E+00   8.1551350000000014E+00   9.8948300000000000E-01 Mg   0.0000000000000000E+00   0.0000000000000000E+00  -3.0960000000000001E-02  -5.8609999999999999E-03   7.4949999999999999E-03
atom   1.4467480000000019E+00   5.8898810000000035E+00   3.2713729999999996E+00 Mg   0.0000000000000000E+00   0.0000000000000000E+00   1.2439000000000000E-02   1.2501000000000000E-02   4.5710000000000004E-03