begin
comment  i =     4870, time =     2435.000, E =       -56.1698666475
lattice   1.3179022000000000E+01   0.0000000000000000E+00   0.0000000000000000E+00
lattice  -6.5895109999999999E+00   1.1413368000000000E+01   0.0000000000000000E+00
lattice   0.0000000000000000E+00   0.0000000000000000E+00   1.0583169000000000E+01
atom  -1.2185299999999999E-01   3.3786010000000002E+00   2.2384130000000000E+00 Mg   0.0000000000000000E+00   0.0000000000000000E+00   2.8579999999999999E-03  -3.4069999999999999E-03   1.2482999999999999E-02
atom   2.9392480000000010E+00   2.1419800000000002E+00   7.7014829999999996E+00 Mg   0.0000000000000000E+00   0.0000000000000000E+00   5.7629999999999999E-03   2.0200000000000000E-04  -2.3939999999999999E-03
atom   6.4292689999999997E+00   3.7648190000000001E+00   2.5914329999999999E+00 Mg   0.0000000000000000E+00   0.0000000000000000E+00  -1.8270000000000001E-03  -6.9560000000000004E-03   6.6900000000000000E-04
atom   9.5464280000000024E+00   1.9623050000000002E+00   7.3599630000000005E+00 Mg   0.0000000000000000E+00   0.0000000000000000E+00  -7.6800000000000002E-04  -1.0802000000000001E-02  -1.0349000000000001E-02
atom  -5.4116899999999990E-01   3.2586490000000006E+00   2.4797440000000002E+00 Mg   0.0000000000000000E+00   0.0000000000000000E+00  -2.8200000000000002E-04   3.3440000000000002E-03  -4.9880000000000002E-03
atom   2.4805260000000016E+00   1.9137940000000002E+00   7.3150139999999997E+00 Mg   0.0000000000000000E+00   0.0000000000000000E+00   5.5519999999999996E-03  -6.1570000000000001E-03   5.8510000000000003E-03
atom   5.5794200000000025E+00   4.2812690000000000E+00   3.2559990000000001E+00 Mg   0.0000000000000000E+00   0.0000000000000000E+00  -3.5430000000000001E-03  -1.7413000000000001E-02  -8.1609999999999999E-03
atom   8.6502120000000033E+00   9.7064800000000007E-01   7.0275379999999998E+00 Mg   0.0000000000000000E+00   0.0000000000000000E+00  -5.1430000000000000E-03   1.1440000000000001E-02   1.2933000000000000E-02
atom  -3.2308580000000000E+00   8.4932309999999998E+00   2.9441299999999999E+00 Mg   0.0000000000000000E+00   0.0000000000000000E+00   1.5200000000000001E-04   1.8305999999999999E-02   4.1609999999999998E-03
atom  -7.6668099999999983E-01   6.6468220000000002E+00   7.8434059999999999E+00 Mg   0.0000000000000000E+00   0.0000000000000000E+00   3.3080000000000002E-03   4.3829999999999997E-03   2.9210000000000000E-03
atom   2.7138980000000008E+00   8.1284220000000005E+00   2.7708590000000002E+00 Mg   0.0000000000000000E+00   0.0000000000000000E+00   3.0290000000000000E-03   1.1320999999999999E-02   5.5170000000000002E-03
atom   6.2984150000000003E+00   7.5676379999999996E+00   7.7495060000000011E+00 Mg   0.0000000000000000E+00   0.0000000000000000E+00  -2.7580000000000000E-03  -1.6559999999999999E-03  -1.7669999999999999E-03
atom  -4.3617259999999973E+00   9.1404820000000004E+00   2.7617950000000002E+00 Mg   0.0000000000000000E+00   0.0000000000000000E+00   8.6560000000000005E-03   2.0550000000000000E-03  -8.0000000000000007E-05
atom  -9.4770099999999691E-01   6.8948360000000006E+00   7.4552110000000003E+00 Mg   0.0000000000000000E+00   0.0000000000000000E+00  -1.1670000000000001E-03   9.3910000000000000E-03   6.1529999999999996E-03
atom   1.9907980000000005E+00   8.7914809999999992E+00   3.0626720000000001E+00 Mg   0.0000000000000000E+00   0.0000000000000000E+00  -3.1300000000000002E-04   9.0100000000000006E-03  -8.4189999999999994E-03
atom   5.1337280000000058E+00   7.9065820000000011E+00   7.8519790000000000E+00 Mg   0.0000000000000000E+00   0.0000000000000000E+00   6.3000000000000003E-04  -2.5959999999999998E-03   1.1978000000000001E-02
atom   8.1675999999998597E-02   2.9249960000000010E+00   1.9054489999999999E+00 Mg   0.0000000000000000E+00   0.0000000000000000E+00   7.6490000000000004E-03   8.2100000000000001E-04   1.4361000000000001E-02
atom   2.6276179999999991E+00   1.5710360000000008E+00   7.7898649999999998E+00 Mg   0.0000000000000000E+00   0.0000000000000000E+00   1.1299000000000000E-02  -6.8459999999999997E-03  -1.1051999999999999E-02
atom   6.0345619999999993E+00   2.2292140000000016E+00   1.8158879999999999E+00 Mg   0.0000000000000000E+00   0.0000000000000000E+00   8.2690000000000003E-03   2.9550000000000002E-03   9.3900000000000008E-03
atom   1.0078967000000002E+01   1.3325979999999991E+00   7.1238340000000004E+00 Mg   0.0000000000000000E+00   0.0000000000000000E+00  -7.6949999999999996E-03  -3.2620000000000001E-03  -7.0349999999999996E-03
atom  -1.8765199999999735E-01   3.0160490000000011E+00   2.0296289999999999E+00 Mg   0.0000000000000000E+00   0.0000000000000000E+00  -5.3119999999999999E-03  -7.8879999999999992E-03   2.6619999999999999E-03
atom   2.9683560000000018E+00   2.1515029999999999E+00   7.3196860000000008E+00 Mg   0.0000000000000000E+00   0.0000000000000000E+00   9.3999999999999997E-04  -9.8250000000000004E-03  -6.0899999999999999E-03
atom   6.0414440000000029E+00   3.4412159999999998E+00   2.1417970000000000E+00 Mg   0.0000000000000000E+00   0.0000000000000000E+00  -3.0179999999999998E-03  -4.6979999999999999E-03   6.7910000000000002E-03
atom   8.6146920000000033E+00   1.6965500000000007E+00   7.9288249999999998E+00 Mg   0.0000000000000000E+00   0.0000000000000000E+00   2.3240000000000001E-03  -7.9989999999999992E-03  -7.1910000000000003E-03
atom  -2.4299230000000023E+00   8.6235150000000012E+00   2.4798490000000002E+00 Mg   0.0000000000000000E+00   0.0000000000000000E+00  -3.9999999999999998E-06  -1.0989999999999999E-03   2.1099999999999999E-03
atom   4.7173299999999890E-01   6.8155890000000019E+00   7.3152939999999997E+00 Mg   0.0000000000000000E+00   0.0000000000000000E+00  -1.0210000000000000E-03   2.2529999999999998E-03  -8.2500000000000000E-04
atom   3.7464020000000011E+00   8.5478499999999986E+00   2.1183559999999999E+00 Mg   0.0000000000000000E+00   0.0000000000000000E+00  -2.7049999999999999E-03  -6.0700000000000001E-04   8.3280000000000003E-03
atom   6.5873800000000013E+00   6.6675810000000011E+00   7.1313700000000004E+00 Mg   0.0000000000000000E+00   0.0000000000000000E+00  -2.6600000000000001E-04   1.3500000000000000E-04  -5.1710000000000002E-03
atom  -3.1034160000000002E+00   7.7086550000000003E+00   2.3974739999999999E+00 Mg   0.0000000000000000E+00   0.0000000000000000E+00  -1.2736000000000001E-02   7.2100000000000003E-03  -1.2270000000000000E-03
atom  -4.8217900000000002E-01   6.5212310000000002E+00   7.5999980000000003E+00 Mg   0.0000000000000000E+00   0.0000000000000000E+00  -1.6700000000000000E-03   5.7739999999999996E-03   7.4299999999999995E-04
atom   2.4979950000000013E+00   7.8046740000000003E+00   2.6844250000000005E+00 Mg   0.0000000000000000E+00   0.0000000000000000E+00   7.4300000000000000E-03   4.3930000000000002E-03  -9.7540000000000005E-03
atom   6.4690360000000018E+00   6.8283420000000028E+00   7.1835490000000002E+00 Mg   0.0000000000000000E+00   0.0000000000000000E+00  -2.5360000000000001E-03  -6.0999999999999999E-05   5.6750000000000004E-03
atom  -1.5646100000000016E-01   3.0948410000000006E+00   2.1905829999999993E+00 Mg   0.0000000000000000E+00   0.0000000000000000E+00   6.6540000000000002E-03   1.1495999999999999E-02  -4.7540000000000004E-03
atom   3.3394880000000002E+00   1.6614050000000002E+00   7.1438119999999996E+00 Mg   0.0000000000000000E+00   0.0000000000000000E+00   2.4030000000000002E-03   1.4002000000000001E-02  -1.3829999999999999E-03
atom   7.1785180000000031E+00   3.5608370000000003E+00   1.2493700000000001E+00 Mg   0.0000000000000000E+00   0.0000000000000000E+00  -1.1575000000000000E-02   1.3519999999999999E-03   9.5639999999999996E-03
atom   9.1832510000000021E+00   2.1660140000000001E+00   6.4331459999999980E+00 Mg   0.0000000000000000E+00   0.0000000000000000E+00   3.3500000000000001E-03  -2.7309999999999999E-03   1.5839999999999999E-03
atom  -3.6635699999999760E-01   3.2969950000000003E+00   1.6569839999999991E+00 Mg   0.0000000000000000E+00   0.0000000000000000E+00  -2.6270000000000000E-03   7.9939999999999994E-03   3.4619999999999998E-03
atom   2.0313920000000052E+00   1.4380050000000000E+00   7.1217179999999987E+00 Mg   0.0000000000000000E+00   0.0000000000000000E+00   7.1939999999999999E-03   4.2620000000000002E-03  -1.7740000000000000E-03
atom   5.2505120000000032E+00   3.5666390000000003E+00   2.3511319999999993E+00 Mg   0.0000000000000000E+00   0.0000000000000000E+00   8.5179999999999995E-03  -1.5440000000000000E-03  -4.9750000000000003E-03
atom   9.1845390000000044E+00   1.9047490000000002E+00   7.1715330000000028E+00 Mg   0.0000000000000000E+00   0.0000000000000000E+00  -1.6693000000000000E-02  -9.8799999999999995E-04  -5.6490000000000004E-03
atom  -2.3396260000000009E+00   9.2521129999999996E+00   2.5458350000000016E+00 Mg   0.0000000000000000E+00   0.0000000000000000E+00  -7.0790000000000002E-03  -7.0109999999999999E-03  -1.3228000000000000E-02
atom  -6.8238799999999999E-01   7.4460350000000011E+00   7.5592510000000024E+00 Mg   0.0000000000000000E+00   0.0000000000000000E+00   1.2659000000000000E-02  -1.2869999999999999E-03  -7.2080000000000000E-03
atom   3.4511190000000012E+00   8.2890900000000016E+00   2.2045270000000010E+00 Mg   0.0000000000000000E+00   0.0000000000000000E+00  -9.5169999999999994E-03  -1.7940000000000000E-03  -4.7289999999999997E-03
atom   6.1189939999999998E+00   7.2811490000000010E+00   7.0579230000000015E+00 Mg   0.0000000000000000E+00   0.0000000000000000E+00   5.5999999999999995E-04  -8.0579999999999992E-03   4.4209999999999996E-03
atom  -4.0942079999999983E+00   8.9930339999999998E+00   2.2004940000000000E+00 Mg   0.0000000000000000E+00   0.0000000000000000E+00   1.5367000000000000E-02  -3.3700000000000002E-03  -2.4550000000000002E-03
atom  -4.5605299999999610E-01   7.1625410000000009E+00   6.9454149999999988E+00 Mg   0.0000000000000000E+00   0.0000000000000000E+00  -7.7079999999999996E-03  -2.8089999999999999E-03   6.2210000000000000E-03
atom   2.9706520000000030E+00   8.9132090000000002E+00   2.8330760000000006E+00 Mg   0.0000000000000000E+00   0.0000000000000000E+00  -5.7980000000000002E-03   4.1180000000000001E-03  -1.5857000000000000E-02
atom   5.4761010000000017E+00   7.0961260000000008E+00   7.3527140000000006E+00 Mg   0.0000000000000000E+00   0.0000000000000000E+00   3.0000000000000001E-05  -3.3730000000000001E-03   8.3269999999999993E-03
atom   5.8479999999999310E-02   2.9868779999999995E+00   1.9026150000000008E+00 Mg   0.0000000000000000E+00   0.0000000000000000E+00  -1.6199999999999999E-03   4.0679999999999996E-03   3.2940000000000001E-03
atom   3.8093689999999998E+00   1.7794729999999996E+00   6.2116810000000022E+00 Mg   0.0000000000000000E+00   0.0000000000000000E+00  -5.4099999999999999E-03   4.8400000000000000E-04   3.4619999999999998E-03
atom   6.8421649999999996E+00   3.4090420000000003E+00   1.3532690000000021E+00 Mg   0.0000000000000000E+00   0.0000000000000000E+00   4.6800000000000001E-03  -1.0038000000000000E-02   6.1240000000000001E-03
atom   9.7317900000000002E+00   6.8840200000000207E-01   6.7190470000000024E+00 Mg   0.0000000000000000E+00   0.0000000000000000E+00  -8.6420000000000004E-03   1.1730000000000000E-03  -1.3950000000000000E-03
atom  -2.1491699999999930E-01   2.4762079999999997E+00   1.4630480000000019E+00 Mg   0.0000000000000000E+00   0.0000000000000000E+00  -8.3029999999999996E-03   1.2530000000000000E-03   8.2600000000000002E-04
atom   2.4680100000000009E+00   9.2798200000000042E-01   6.9799289999999994E+00 Mg   0.0000000000000000E+00   0.0000000000000000E+00   9.5289999999999993E-03   6.1700000000000004E-04  -3.6740000000000002E-03
atom   5.3737850000000025E+00   3.4008920000000007E+00   1.9341810000000006E+00 Mg   0.0000000000000000E+00   0.0000000000000000E+00   7.7700000000000000E-03  -5.2690000000000002E-03   5.9860000000000000E-03
atom   8.7742010000000032E+00   1.2242149999999987E+00   7.1705090000000018E+00 Mg   0.0000000000000000E+00   0.0000000000000000E+00  -2.5880000000000000E-03  -2.3059999999999999E-03  -1.1024000000000001E-02
atom  -2.2437900000000024E+00   8.5756730000000019E+00   2.5527050000000000E+00 Mg   0.0000000000000000E+00   0.0000000000000000E+00  -3.5290000000000000E-03   8.8999999999999995E-05  -1.7513999999999998E-02
atom   5.4379199999999905E-01   6.7878670000000021E+00   6.8460820000000018E+00 Mg   0.0000000000000000E+00   0.0000000000000000E+00   1.6329999999999999E-03  -2.6150000000000001E-03   2.7680000000000001E-03
atom   3.6506050000000014E+00   7.9266780000000017E+00   1.5645670000000012E+00 Mg   0.0000000000000000E+00   0.0000000000000000E+00  -5.7260000000000002E-03   5.4339999999999996E-03   4.4359999999999998E-03
atom   6.2923009999999984E+00   6.9525610000000038E+00   6.7982020000000016E+00 Mg   0.0000000000000000E+00   0.0000000000000000E+00   6.8760000000000002E-03  -6.2890000000000003E-03  -4.5909999999999996E-03
atom  -3.6649559999999992E+00   8.3989609999999981E+00   1.5042600000000006E+00 Mg   0.0000000000000000E+00   0.0000000000000000E+00   7.9819999999999995E-03   1.6699999999999999E-04   6.0889999999999998E-03
atom  -8.4216299999999866E-01   5.6275630000000021E+00   6.0644749999999989E+00 Mg   0.0000000000000000E+00   0.0000000000000000E+00   1.3610000000000000E-03   1.2533000000000001E-02   5.2630000000000003E-03
atom   3.0242370000000003E+00   8.4792570000000005E+00   1.9906029999999999E+00 Mg   0.0000000000000000E+00   0.0000000000000000E+00  -1.0123999999999999E-02  -1.6520000000000000E-03  -4.4759999999999999E-03
atom   6.1103990000000010E+00   7.0660189999999998E+00   6.8692520000000012E+00 Mg   0.0000000000000000E+00   0.0000000000000000E+00  -4.7200000000000002E-03  -9.6279999999999994E-03   4.6340000000000001E-03
energy  -5.6169867000000004E+01
charge   0.0000000000000000E+00
end
begin
comment  i =    17870, time =     8935.000, E =       -56.3638841536
lattice   1.2821235000000000E+01   0.0000000000000000E+00   0.0000000000000000E+00
lattice  -6.4106170000000002E+00   1.1103515000000000E+01   0.0000000000000000E+00
lattice   0.0000000000000000E+00   0.0000000000000000E+00   1.0295854000000000E+01
atom   6.3333000000000098E-02   3.6766730000000005E+00   2.4249560000000003E+00 Mg   0.0000000000000000E+00   0.0000000000000000E+00  -2.2439999999999999E-03  -9.2400000000000002E-04   2.3210000000000001E-03
atom   2.9204670000000008E+00   1.7516520000000004E+00   7.2889300000000006E+00 Mg   0.0000000000000000E+00   0.0000000000000000E+00  -9.2999999999999997E-05   3.0699999999999998E-04   8.8400000000000002E-04
atom   6.1224780000000010E+00   3.5257410000000005E+00   2.2361740000000001E+00 Mg   0.0000000000000000E+00   0.0000000000000000E+00  -1.0160000000000000E-03   4.0000000000000003E-05  -4.7100000000000001E-04
atom   8.9888090000000016E+00   1.8086170000000001E+00   7.0134070000000008E+00 Mg   0.0000000000000000E+00   0.0000000000000000E+00   1.0720000000000000E-03  -2.9399999999999999E-03   2.1660000000000000E-03
atom  -5.8674799999999727E-01   3.6506670000000008E+00   2.5401770000000004E+00 Mg   0.0000000000000000E+00   0.0000000000000000E+00  -1.9770000000000000E-03  -2.1530000000000000E-03  -1.9670000000000000E-03
atom   2.3063520000000040E+00   1.7756750000000001E+00   7.3274040000000005E+00 Mg   0.0000000000000000E+00   0.0000000000000000E+00   9.0100000000000000E-04  -6.7800000000000000E-04  -4.4000000000000002E-04
atom   5.2506210000000033E+00   3.6864250000000007E+00   2.3703230000000004E+00 Mg   0.0000000000000000E+00   0.0000000000000000E+00   3.5469999999999998E-03  -1.3600000000000001E-03   3.9300000000000001E-04
atom   8.3571850000000047E+00   1.8162910000000003E+00   7.2914270000000005E+00 Mg   0.0000000000000000E+00   0.0000000000000000E+00  -4.1800000000000002E-04   3.3100000000000002E-04   3.5799999999999997E-04
atom  -3.1148210000000001E+00   8.9397990000000025E+00   2.4605370000000004E+00 Mg   0.0000000000000000E+00   0.0000000000000000E+00   1.6710000000000000E-03  -1.4690000000000000E-03  -1.4450000000000001E-03
atom   2.3108000000001142E-02   7.2666120000000012E+00   7.4259220000000008E+00 Mg   0.0000000000000000E+00   0.0000000000000000E+00  -2.2109999999999999E-03  -3.9849999999999998E-03  -1.8670000000000000E-03
atom   2.9931230000000006E+00   8.7981760000000016E+00   2.4427290000000004E+00 Mg   0.0000000000000000E+00   0.0000000000000000E+00   2.2699999999999999E-03  -4.4000000000000002E-04  -1.6030000000000000E-03
atom   5.9204890000000026E+00   6.9853980000000009E+00   7.2710240000000006E+00 Mg   0.0000000000000000E+00   0.0000000000000000E+00   8.3199999999999995E-04  -5.2099999999999998E-04   9.7599999999999998E-04
atom  -3.7189559999999999E+00   8.7109830000000024E+00   2.7049650000000005E+00 Mg   0.0000000000000000E+00   0.0000000000000000E+00  -3.3700000000000001E-04   2.6400000000000002E-04  -3.3600000000000001E-03
atom  -6.9900499999999766E-01   6.9749430000000014E+00   7.6101720000000013E+00 Mg   0.0000000000000000E+00   0.0000000000000000E+00   1.0100000000000000E-04   3.3700000000000001E-04  -5.2360000000000002E-03
atom   2.2681160000000040E+00   8.9620460000000026E+00   2.5709600000000004E+00 Mg   0.0000000000000000E+00   0.0000000000000000E+00  -9.1100000000000003E-04  -2.9280000000000000E-03  -1.6580000000000000E-03
atom   5.4446470000000087E+00   7.2196510000000016E+00   7.2375080000000009E+00 Mg   0.0000000000000000E+00   0.0000000000000000E+00  -1.8280000000000000E-03  -2.8579999999999999E-03   1.6100000000000001E-03
atom   1.4108499999999904E-01   3.0043420000000034E+00   2.4075110000000000E+00 Mg   0.0000000000000000E+00   0.0000000000000000E+00   3.2539999999999999E-03  -6.9800000000000005E-04  -1.1580000000000000E-03
atom   3.3593620000000004E+00   1.4168240000000023E+00   7.0162040000000001E+00 Mg   0.0000000000000000E+00   0.0000000000000000E+00  -8.8999999999999995E-04  -2.8750000000000000E-03   6.0879999999999997E-03
atom   6.4272110000000024E+00   2.9406340000000024E+00   2.3598479999999999E+00 Mg   0.0000000000000000E+00   0.0000000000000000E+00   1.4660000000000001E-03   6.4999999999999997E-04  -2.1329999999999999E-03
atom   9.4230330000000002E+00   1.2181260000000032E+00   7.1235760000000008E+00 Mg   0.0000000000000000E+00   0.0000000000000000E+00   1.9789999999999999E-03  -4.0900000000000002E-04   2.2929999999999999E-03
atom  -1.4379799999999554E-01   3.0252710000000018E+00   2.4029320000000003E+00 Mg   0.0000000000000000E+00   0.0000000000000000E+00  -3.6819999999999999E-03  -2.3950000000000000E-03   2.1489999999999999E-03
atom   2.6187570000000027E+00   1.0604630000000030E+00   7.4669400000000010E+00 Mg   0.0000000000000000E+00   0.0000000000000000E+00   3.9899999999999999E-04   4.1100000000000002E-04  -1.8480000000000000E-03
atom   5.6851510000000038E+00   2.9865880000000029E+00   2.4444840000000005E+00 Mg   0.0000000000000000E+00   0.0000000000000000E+00  -3.8800000000000000E-04  -3.5190000000000000E-03   3.2560000000000002E-03
atom   8.6354290000000038E+00   1.1697460000000035E+00   7.3579860000000012E+00 Mg   0.0000000000000000E+00   0.0000000000000000E+00   2.4699999999999999E-04  -3.6999999999999998E-05   1.4260000000000000E-03
atom  -2.6497070000000011E+00   8.2090980000000044E+00   2.5494040000000004E+00 Mg   0.0000000000000000E+00   0.0000000000000000E+00   6.1200000000000002E-04   1.2630000000000000E-03  -7.1299999999999998E-04
atom   1.9667699999999938E-01   6.3762500000000051E+00   7.2141570000000019E+00 Mg   0.0000000000000000E+00   0.0000000000000000E+00   1.4599999999999999E-03   2.6740000000000002E-03   2.1630000000000000E-03
atom   3.4604220000000008E+00   8.0914060000000045E+00   2.1453460000000004E+00 Mg   0.0000000000000000E+00   0.0000000000000000E+00  -2.4699999999999999E-04   2.1530000000000000E-03   3.5190000000000000E-03
atom   6.4126790000000007E+00   6.4255500000000021E+00   7.1555720000000012E+00 Mg   0.0000000000000000E+00   0.0000000000000000E+00  -7.0799999999999997E-04   2.8769999999999998E-03   1.1320000000000000E-03
atom  -3.3593839999999986E+00   8.1976560000000038E+00   2.3600479999999999E+00 Mg   0.0000000000000000E+00   0.0000000000000000E+00   1.5550000000000000E-03  -1.5799999999999999E-04   2.1619999999999999E-03
atom  -5.0264099999999778E-01   6.2568850000000014E+00   7.3674420000000005E+00 Mg   0.0000000000000000E+00   0.0000000000000000E+00   2.6809999999999998E-03   3.8600000000000001E-03   3.9800000000000002E-04
atom   2.7483600000000035E+00   8.2384920000000026E+00   2.5724500000000003E+00 Mg   0.0000000000000000E+00   0.0000000000000000E+00  -2.9440000000000000E-03   3.0270000000000002E-03  -1.8720000000000000E-03
atom   5.6014560000000051E+00   6.3176400000000017E+00   7.3031860000000011E+00 Mg   0.0000000000000000E+00   0.0000000000000000E+00  -2.2499999999999999E-04   2.7399999999999999E-04   2.9099999999999998E-03
atom   3.6905000000000403E-02   3.4820740000000008E+00   1.9770340000000017E+00 Mg   0.0000000000000000E+00   0.0000000000000000E+00   5.7700000000000004E-04   7.4299999999999995E-04  -3.3969999999999998E-03
atom   2.8450760000000010E+00   1.6160010000000002E+00   6.8164050000000023E+00 Mg   0.0000000000000000E+00   0.0000000000000000E+00   2.8739999999999998E-03  -2.5500000000000002E-04  -2.0060000000000000E-03
atom   6.0966210000000016E+00   3.2502560000000007E+00   1.6753210000000023E+00 Mg   0.0000000000000000E+00   0.0000000000000000E+00  -3.3130000000000000E-03   1.5380000000000001E-03  -1.0600000000000000E-04
atom   9.0716070000000020E+00   1.7172550000000002E+00   6.4865610000000027E+00 Mg   0.0000000000000000E+00   0.0000000000000000E+00   6.6100000000000002E-04  -1.5550000000000000E-03   2.9680000000000002E-03
atom  -7.7824699999999880E-01   3.3394960000000009E+00   1.8349220000000002E+00 Mg   0.0000000000000000E+00   0.0000000000000000E+00   1.3680000000000001E-03  -8.4699999999999999E-04   7.0799999999999997E-04
atom   2.4055070000000032E+00   1.7330130000000001E+00   6.7733230000000022E+00 Mg   0.0000000000000000E+00   0.0000000000000000E+00  -1.3400000000000000E-03   1.0600000000000000E-03  -8.0199999999999998E-04
atom   5.3396250000000043E+00   3.5463090000000008E+00   1.7934190000000010E+00 Mg   0.0000000000000000E+00   0.0000000000000000E+00   9.0200000000000002E-04  -1.4200000000000000E-03  -6.7800000000000000E-04
atom   8.3321260000000024E+00   1.8652560000000002E+00   6.5719630000000011E+00 Mg   0.0000000000000000E+00   0.0000000000000000E+00  -1.0980000000000000E-03  -2.2179999999999999E-03   4.3750000000000004E-03
atom  -3.1119930000000005E+00   8.6793860000000009E+00   1.8437990000000009E+00 Mg   0.0000000000000000E+00   0.0000000000000000E+00   2.0910000000000000E-03   2.4550000000000002E-03   4.4999999999999999E-04
atom  -8.6948999999999249E-02   6.9989500000000007E+00   6.8018120000000017E+00 Mg   0.0000000000000000E+00   0.0000000000000000E+00   4.0700000000000003E-04   4.8000000000000001E-04  -5.1300000000000000E-04
atom   2.9731060000000005E+00   8.8066660000000017E+00   1.8539180000000004E+00 Mg   0.0000000000000000E+00   0.0000000000000000E+00   1.8829999999999999E-03  -6.2799999999999998E-04  -1.6899999999999999E-04
atom   5.8663020000000028E+00   6.7398230000000021E+00   6.4632930000000011E+00 Mg   0.0000000000000000E+00   0.0000000000000000E+00   2.1640000000000001E-03   1.5910000000000000E-03   4.1720000000000004E-03
atom  -3.7878359999999986E+00   8.5442360000000015E+00   1.8837190000000004E+00 Mg   0.0000000000000000E+00   0.0000000000000000E+00  -1.4100000000000000E-03   9.8999999999999999E-04   2.6559999999999999E-03
atom  -6.4506699999999806E-01   6.8883510000000019E+00   6.8307970000000005E+00 Mg   0.0000000000000000E+00   0.0000000000000000E+00  -2.3200000000000000E-03   2.4699999999999999E-04   1.5110000000000000E-03
atom   2.2846830000000060E+00   8.5060380000000020E+00   1.9913209999999999E+00 Mg   0.0000000000000000E+00   0.0000000000000000E+00   4.5199999999999998E-04   4.1200000000000004E-03  -1.0000000000000000E-03
atom   5.4039840000000012E+00   7.1890760000000009E+00   6.7284220000000028E+00 Mg   0.0000000000000000E+00   0.0000000000000000E+00  -6.0300000000000002E-04  -3.3600000000000001E-03   1.0510000000000001E-03
atom   4.8584399999999983E-01   2.8581790000000029E+00   1.7575330000000029E+00 Mg   0.0000000000000000E+00   0.0000000000000000E+00  -1.9559999999999998E-03  -2.1099999999999999E-03   1.7140000000000000E-03
atom   3.5786509999999998E+00   1.1676910000000025E+00   6.6794720000000005E+00 Mg   0.0000000000000000E+00   0.0000000000000000E+00  -2.7079999999999999E-03   1.1400000000000001E-04  -1.3079999999999999E-03
atom   6.5344650000000017E+00   2.8405940000000029E+00   1.6619350000000019E+00 Mg   0.0000000000000000E+00   0.0000000000000000E+00  -5.1000000000000004E-04   1.6249999999999999E-03   1.4959999999999999E-03
atom   9.5170510000000021E+00   1.0337570000000027E+00   6.7934650000000003E+00 Mg   0.0000000000000000E+00   0.0000000000000000E+00   6.0599999999999998E-04   9.2599999999999996E-04  -2.3240000000000001E-03
atom  -1.5658199999999728E-01   2.9228210000000043E+00   1.9878860000000016E+00 Mg   0.0000000000000000E+00   0.0000000000000000E+00  -4.4770000000000001E-03  -1.9910000000000001E-03  -3.6200000000000002E-04
atom   2.6008590000000016E+00   8.0754900000000207E-01   6.8960680000000023E+00 Mg   0.0000000000000000E+00   0.0000000000000000E+00   1.8829999999999999E-03   1.1240000000000000E-03  -2.0760000000000002E-03
atom   5.6441220000000047E+00   2.6390740000000035E+00   2.0336030000000016E+00 Mg   0.0000000000000000E+00   0.0000000000000000E+00   2.5479999999999999E-03   2.0330000000000001E-03   6.0000000000000002E-05
atom   8.8047810000000037E+00   1.0757060000000036E+00   6.7699500000000015E+00 Mg   0.0000000000000000E+00   0.0000000000000000E+00  -8.0800000000000002E-04   1.3250000000000000E-03  -2.6700000000000001E-03
atom  -2.7625590000000009E+00   7.9566150000000047E+00   1.9900580000000003E+00 Mg   0.0000000000000000E+00   0.0000000000000000E+00   1.3730000000000001E-03   3.5300000000000002E-04  -5.8000000000000000E-05
atom   4.6033700000000044E-01   6.3016100000000055E+00   6.7189220000000027E+00 Mg   0.0000000000000000E+00   0.0000000000000000E+00  -1.8060000000000001E-03   1.2019999999999999E-03  -2.2850000000000001E-03
atom   3.3195660000000000E+00   8.0008770000000045E+00   1.6535140000000010E+00 Mg   0.0000000000000000E+00   0.0000000000000000E+00   2.4260000000000002E-03   2.3900000000000001E-04   1.3770000000000000E-03
atom   6.5854670000000013E+00   6.2849360000000027E+00   6.6203519999999996E+00 Mg   0.0000000000000000E+00   0.0000000000000000E+00  -1.2550000000000000E-03   1.9940000000000001E-03  -1.4829999999999999E-03
atom  -3.2611569999999972E+00   8.2128000000000032E+00   1.9904870000000006E+00 Mg   0.0000000000000000E+00   0.0000000000000000E+00  -5.1099999999999995E-04  -2.0209999999999998E-03  -2.5490000000000001E-03
atom  -2.1121499999999824E-01   6.3189920000000042E+00   6.7780470000000017E+00 Mg   0.0000000000000000E+00   0.0000000000000000E+00  -3.1500000000000001E-04   1.8360000000000000E-03   2.2800000000000001E-04
atom   2.8209550000000028E+00   8.0501740000000037E+00   1.9208860000000008E+00 Mg   0.0000000000000000E+00   0.0000000000000000E+00  -1.9030000000000000E-03   1.8540000000000000E-03  -8.5099999999999998E-04
atom   5.7112370000000023E+00   6.2819550000000053E+00   7.0876590000000022E+00 Mg   0.0000000000000000E+00   0.0000000000000000E+00   1.9200000000000000E-04   4.3700000000000000E-04  -8.5640000000000004E-03
energy  -5.6363883999999999E+01
charge   0.0000000000000000E+00
end
begin
comment  i =     8290, time =     4145.000, E =       -56.1638314907
lattice   1.3107729000000001E+01   0.0000000000000000E+00   0.0000000000000000E+00
lattice  -6.5538639999999999E+00   1.1351626000000000E+01   0.0000000000000000E+00
lattice   0.0000000000000000E+00   0.0000000000000000E+00   1.0525918000000001E+01
atom   1.3077200000000033E-01   3.5796910000000000E+00   2.4662389999999994E+00 Mg   0.0000000000000000E+00   0.0000000000000000E+00  -2.1140000000000000E-03   1.4820000000000000E-03  -2.3869999999999998E-03
atom   3.1067140000000002E+00   1.8037730000000001E+00   6.8970669999999989E+00 Mg   0.0000000000000000E+00   0.0000000000000000E+00   2.6229999999999999E-03  -4.1260000000000003E-03   9.5049999999999996E-03
atom   6.4458620000000000E+00   3.2285040000000005E+00   2.2269359999999994E+00 Mg   0.0000000000000000E+00   0.0000000000000000E+00   2.2800000000000001E-04  -1.1470000000000000E-03   1.2320000000000000E-03
atom   9.8228700000000000E+00   2.5208770000000000E+00   7.2798400000000001E+00 Mg   0.0000000000000000E+00   0.0000000000000000E+00  -3.3340000000000002E-03  -1.5159000000000001E-02  -1.8380000000000000E-03
atom  -1.6676800000000239E-01   4.0136589999999996E+00   2.0663169999999997E+00 Mg   0.0000000000000000E+00   0.0000000000000000E+00  -2.8279999999999998E-03  -5.6740000000000002E-03   8.4320000000000003E-03
atom   2.5810039999999987E+00   8.2609999999999995E-01   7.3266829999999992E+00 Mg   0.0000000000000000E+00   0.0000000000000000E+00   6.8999999999999997E-04   1.6062000000000000E-02  -8.8400000000000002E-04
atom   5.6493179999999974E+00   3.6846170000000003E+00   3.0488729999999999E+00 Mg   0.0000000000000000E+00   0.0000000000000000E+00   3.5839999999999999E-03   5.2919999999999998E-03  -5.2410000000000000E-03
atom   8.8182349999999978E+00   1.5977920000000001E+00   7.5393169999999987E+00 Mg   0.0000000000000000E+00   0.0000000000000000E+00  -3.9010000000000000E-03  -1.2799999999999999E-04   4.8000000000000001E-05
atom  -2.9175840000000006E+00   9.3277249999999992E+00   2.6959979999999995E+00 Mg   0.0000000000000000E+00   0.0000000000000000E+00  -1.2489999999999999E-03   4.6940000000000003E-03  -2.5439999999999998E-03
atom  -6.2517900000000037E-01   7.2101920000000010E+00   6.9316949999999995E+00 Mg   0.0000000000000000E+00   0.0000000000000000E+00   8.8380000000000004E-03  -1.0278000000000001E-02   1.2482000000000000E-02