begin
comment  i =      970, time =      485.000, E =       -56.1741116575
lattice   1.3170612999999999E+01   0.0000000000000000E+00   0.0000000000000000E+00
lattice  -6.5853060000000001E+00   1.1406084999999999E+01   0.0000000000000000E+00
lattice   0.0000000000000000E+00   0.0000000000000000E+00   1.0576415000000001E+01
atom  -1.4093899999999959E-01   4.0342269999999996E+00   2.9490460000000005E+00 Mg   0.0000000000000000E+00   0.0000000000000000E+00   4.1939999999999998E-03  -4.5500000000000000E-04  -2.4180000000000000E-03
atom   2.9813719999999999E+00   2.2276609999999999E+00   7.6029530000000012E+00 Mg   0.0000000000000000E+00   0.0000000000000000E+00  -2.5739999999999999E-03  -2.0370000000000002E-03   3.3240000000000001E-03
atom   5.6755770000000005E+00   3.7568630000000001E+00   3.0470579999999998E+00 Mg   0.0000000000000000E+00   0.0000000000000000E+00   1.2475999999999999E-02  -5.7959999999999999E-03  -1.3810000000000001E-03
atom   9.0327510000000011E+00   2.4622530000000000E+00   8.4139769999999992E+00 Mg   0.0000000000000000E+00   0.0000000000000000E+00   6.4970000000000002E-03  -2.0567999999999999E-02  -1.4416000000000000E-02
atom  -1.0694520000000014E+00   3.0607649999999995E+00   2.5806369999999998E+00 Mg   0.0000000000000000E+00   0.0000000000000000E+00   4.7590000000000002E-03   4.7320000000000001E-03   4.9990000000000000E-03
atom   2.9689779999999977E+00   2.1111420000000001E+00   6.8744350000000001E+00 Mg   0.0000000000000000E+00   0.0000000000000000E+00  -5.0000000000000001E-03  -2.2970000000000000E-03   3.9969999999999997E-03
atom   6.3157869999999994E+00   3.1906270000000001E+00   2.4404180000000002E+00 Mg   0.0000000000000000E+00   0.0000000000000000E+00  -1.2708000000000001E-02   4.2259999999999997E-03  -3.8549999999999999E-03
atom   8.9279919999999997E+00   1.1283179999999999E+00   7.6434360000000003E+00 Mg   0.0000000000000000E+00   0.0000000000000000E+00  -1.8489999999999999E-03   3.7700000000000000E-04   2.9659999999999999E-03
atom  -3.6419979999999996E+00   9.7322469999999992E+00   2.9729209999999999E+00 Mg   0.0000000000000000E+00   0.0000000000000000E+00   1.6312000000000000E-02  -9.2860000000000009E-03  -4.4169999999999999E-03
atom  -2.1793599999999924E-01   7.2675569999999992E+00   7.7651150000000007E+00 Mg   0.0000000000000000E+00   0.0000000000000000E+00   5.8690000000000001E-03   2.9619999999999998E-03   3.9659999999999999E-03
atom   3.2007040000000013E+00   8.6952390000000008E+00   3.1061450000000002E+00 Mg   0.0000000000000000E+00   0.0000000000000000E+00  -5.6109999999999997E-03   9.5359999999999993E-03   1.0900000000000000E-03
atom   6.7845540000000009E+00   7.1049759999999997E+00   8.0863709999999998E+00 Mg   0.0000000000000000E+00   0.0000000000000000E+00  -1.9123999999999999E-02   1.5709999999999998E-02  -7.7999999999999996E-03
atom  -3.1505459999999998E+00   9.0274509999999992E+00   1.8050219999999999E+00 Mg   0.0000000000000000E+00   0.0000000000000000E+00  -1.4270000000000001E-03  -3.3700000000000001E-04   6.4450000000000002E-03
atom  -1.0704069999999986E+00   7.1349179999999990E+00   7.8870779999999998E+00 Mg   0.0000000000000000E+00   0.0000000000000000E+00   1.1924000000000001E-02   3.9069999999999999E-03  -7.2170000000000003E-03
atom   2.6876830000000020E+00   8.3247160000000004E+00   2.6085419999999999E+00 Mg   0.0000000000000000E+00   0.0000000000000000E+00  -7.0260000000000001E-03  -3.9909999999999998E-03  -4.6369999999999996E-03
atom   5.9142049999999982E+00   7.4084250000000003E+00   7.2762659999999997E+00 Mg   0.0000000000000000E+00   0.0000000000000000E+00  -6.3550000000000004E-03  -5.8230000000000001E-03   1.4614000000000000E-02
atom  -7.1519999999998723E-02   2.7253590000000014E+00   2.3438119999999998E+00 Mg   0.0000000000000000E+00   0.0000000000000000E+00  -2.5320000000000000E-03   1.5056000000000000E-02   3.8460000000000000E-03
atom   3.8897570000000012E+00   1.6535649999999993E+00   7.7189509999999997E+00 Mg   0.0000000000000000E+00   0.0000000000000000E+00  -7.4640000000000001E-03   1.7409999999999999E-03   3.4220000000000001E-03
atom   6.3374940000000013E+00   3.2741450000000012E+00   2.8702510000000001E+00 Mg   0.0000000000000000E+00   0.0000000000000000E+00   1.6140000000000000E-03   7.1000000000000005E-05  -6.3650000000000000E-03
atom   9.7272149999999993E+00   1.4367300000000012E+00   7.3421740000000009E+00 Mg   0.0000000000000000E+00   0.0000000000000000E+00  -7.8899999999999999E-04  -2.5000000000000001E-03   5.9400000000000000E-03
atom  -5.5078499999999952E-01   2.4543600000000017E+00   1.8147290000000000E+00 Mg   0.0000000000000000E+00   0.0000000000000000E+00  -7.1199999999999996E-04   3.0680000000000000E-03  -5.6979999999999999E-03
atom   2.4502320000000011E+00   1.8249760000000010E+00   6.6562130000000002E+00 Mg   0.0000000000000000E+00   0.0000000000000000E+00  -1.3230000000000000E-03  -1.5716000000000001E-02   1.0342000000000000E-02
atom   5.5796670000000042E+00   3.2288880000000004E+00   2.5972890000000000E+00 Mg   0.0000000000000000E+00   0.0000000000000000E+00   7.0670000000000004E-03  -3.2899999999999997E-04  -6.4289999999999998E-03
atom   8.5213430000000017E+00   4.2017499999999963E-01   6.8827330000000000E+00 Mg   0.0000000000000000E+00   0.0000000000000000E+00   2.7740000000000000E-03   6.8100000000000001E-03   6.3249999999999999E-03
atom  -3.3632189999999995E+00   8.7278410000000015E+00   2.1826310000000002E+00 Mg   0.0000000000000000E+00   0.0000000000000000E+00   6.1100000000000000E-03  -2.9659999999999999E-03   2.3231000000000002E-02
atom   1.5082900000000085E-01   7.2768279999999992E+00   7.2649749999999997E+00 Mg   0.0000000000000000E+00   0.0000000000000000E+00   3.5650000000000000E-03  -3.8720000000000000E-03  -2.4910000000000002E-03
atom   2.9486130000000004E+00   8.5212990000000008E+00   2.4503910000000002E+00 Mg   0.0000000000000000E+00   0.0000000000000000E+00   1.3870000000000000E-03  -1.3010000000000001E-03   2.4499999999999999E-04
atom   6.5965370000000005E+00   7.4498920000000002E+00   7.5093230000000002E+00 Mg   0.0000000000000000E+00   0.0000000000000000E+00  -5.1799999999999997E-03  -2.4200000000000000E-04  -3.6730000000000000E-03
atom  -3.4574459999999996E+00   7.9797759999999993E+00   1.9284580000000002E+00 Mg   0.0000000000000000E+00   0.0000000000000000E+00  -1.7760000000000000E-03   3.1400000000000000E-03  -2.9160000000000002E-03
atom  -5.5471599999999865E-01   6.4438520000000015E+00   6.5743650000000002E+00 Mg   0.0000000000000000E+00   0.0000000000000000E+00   7.5600000000000005E-04   6.8240000000000002E-03   6.1170000000000000E-03
atom   2.5251440000000023E+00   8.1343599999999991E+00   2.1214860000000000E+00 Mg   0.0000000000000000E+00   0.0000000000000000E+00  -1.4419999999999999E-03  -2.5810000000000000E-03   1.4909999999999999E-03
atom   6.0734800000000009E+00   5.8552890000000017E+00   7.9731980000000000E+00 Mg   0.0000000000000000E+00   0.0000000000000000E+00  -2.3820000000000000E-03   4.9919999999999999E-03  -2.7599999999999999E-04
atom  -5.7676999999999971E-02   4.3227589999999996E+00   2.3213479999999982E+00 Mg   0.0000000000000000E+00   0.0000000000000000E+00  -7.5500000000000003E-04  -7.8609999999999999E-03  -7.2800000000000002E-04
atom   3.2101049999999995E+00   1.6362850000000000E+00   7.2611840000000010E+00 Mg   0.0000000000000000E+00   0.0000000000000000E+00   2.0390000000000000E-03   1.0328000000000000E-02  -1.3526000000000000E-02
atom   5.7938559999999999E+00   3.3305359999999995E+00   2.0892500000000007E+00 Mg   0.0000000000000000E+00   0.0000000000000000E+00  -4.8999999999999998E-03   3.4600000000000001E-04   1.2246999999999999E-02
atom   8.9658990000000021E+00   2.5519790000000002E+00   7.1897290000000007E+00 Mg   0.0000000000000000E+00   0.0000000000000000E+00   4.5979999999999997E-03  -5.5750000000000001E-03  -4.4240000000000000E-03
atom  -3.6426599999999781E-01   3.3999259999999998E+00   1.7234389999999999E+00 Mg   0.0000000000000000E+00   0.0000000000000000E+00   3.5119999999999999E-03  -7.9790000000000000E-03   7.1640000000000002E-03
atom   2.7551130000000010E+00   1.4970169999999998E+00   6.5611080000000017E+00 Mg   0.0000000000000000E+00   0.0000000000000000E+00   1.0740000000000001E-03  -2.8560000000000000E-03   3.3490000000000000E-03
atom   5.7603370000000025E+00   3.8094899999999998E+00   2.1023550000000002E+00 Mg   0.0000000000000000E+00   0.0000000000000000E+00   4.0369999999999998E-03  -4.7120000000000000E-03  -7.9030000000000003E-03
atom   9.3733930000000001E+00   1.8819469999999998E+00   7.1370650000000015E+00 Mg   0.0000000000000000E+00   0.0000000000000000E+00  -7.8289999999999992E-03  -3.5720000000000001E-03  -3.4880000000000002E-03
atom  -3.0373869999999998E+00   9.7084980000000005E+00   2.0978759999999999E+00 Mg   0.0000000000000000E+00   0.0000000000000000E+00   2.3770000000000002E-03  -9.8400000000000007E-04  -9.1000000000000003E-05
atom  -4.6023199999999947E-01   7.5907060000000000E+00   7.5911370000000007E+00 Mg   0.0000000000000000E+00   0.0000000000000000E+00   9.7470000000000005E-03  -9.8060000000000005E-03  -1.2979999999999999E-03
atom   3.4290510000000003E+00   8.8960349999999995E+00   1.9245969999999997E+00 Mg   0.0000000000000000E+00   0.0000000000000000E+00  -2.4329999999999998E-03   5.5750000000000001E-03  -3.5509999999999999E-03
atom   5.8169160000000000E+00   7.2849199999999987E+00   7.6680059999999983E+00 Mg   0.0000000000000000E+00   0.0000000000000000E+00  -8.4000000000000003E-04   2.4699999999999999E-04  -7.2880000000000002E-03
atom  -3.9389769999999977E+00   7.6757119999999990E+00   2.7330570000000001E+00 Mg   0.0000000000000000E+00   0.0000000000000000E+00   1.6530000000000000E-03   3.4009999999999999E-03   3.3210000000000002E-03
atom   2.5480000000000103E-01   6.5953169999999997E+00   6.9623799999999996E+00 Mg   0.0000000000000000E+00   0.0000000000000000E+00  -8.2760000000000004E-03   1.4310000000000000E-03   1.8010000000000001E-03
atom   2.5095180000000004E+00   8.4043759999999992E+00   2.0155409999999985E+00 Mg   0.0000000000000000E+00   0.0000000000000000E+00   5.0460000000000001E-03   3.6080000000000001E-03  -4.4219999999999997E-03
atom   5.7419809999999991E+00   6.8335009999999992E+00   6.9958469999999977E+00 Mg   0.0000000000000000E+00   0.0000000000000000E+00   2.8609999999999998E-03   2.8310000000000002E-03   2.2940000000000000E-03
atom  -1.3261699999999868E-01   3.2982250000000009E+00   1.1725699999999994E+00 Mg   0.0000000000000000E+00   0.0000000000000000E+00   3.2000000000000003E-04  -4.3940000000000003E-03   5.6940000000000003E-03
atom   3.7130839999999998E+00   9.6616200000000163E-01   7.4257140000000001E+00 Mg   0.0000000000000000E+00   0.0000000000000000E+00  -7.7840000000000001E-03   1.3531000000000000E-02  -6.2789999999999999E-03
atom   6.7563180000000020E+00   3.9877920000000002E+00   1.9810500000000006E+00 Mg   0.0000000000000000E+00   0.0000000000000000E+00   2.5030000000000000E-03  -1.1583000000000000E-02  -6.0369999999999998E-03
atom   9.5472850000000005E+00   6.2626499999999996E-01   6.4317670000000016E+00 Mg   0.0000000000000000E+00   0.0000000000000000E+00  -1.3489999999999999E-03   1.3426000000000000E-02   3.1459999999999999E-03
atom  -1.8733199999999828E-01   3.2645679999999992E+00   1.3362079999999996E+00 Mg   0.0000000000000000E+00   0.0000000000000000E+00  -4.0700000000000003E-04  -6.1260000000000004E-03  -4.5500000000000002E-03
atom   2.8236950000000007E+00   9.9274800000000152E-01   6.1408479999999983E+00 Mg   0.0000000000000000E+00   0.0000000000000000E+00  -6.8259999999999996E-03  -1.8370000000000001E-03   1.1355000000000001E-02
atom   5.5333950000000005E+00   1.1083300000000016E+00   1.5084940000000000E+00 Mg   0.0000000000000000E+00   0.0000000000000000E+00   1.6800000000000001E-03   1.0515000000000000E-02  -1.0323000000000001E-02
atom   8.9077610000000007E+00   1.1906620000000010E+00   6.9734960000000008E+00 Mg   0.0000000000000000E+00   0.0000000000000000E+00   3.8850000000000000E-03  -4.0130000000000001E-03  -5.6660000000000000E-03
atom  -2.6744619999999983E+00   8.3909170000000000E+00   1.7143370000000000E+00 Mg   0.0000000000000000E+00   0.0000000000000000E+00  -7.3340000000000002E-03   2.4740000000000001E-03   7.3689999999999997E-03
atom   3.9793800000000101E-01   6.9374079999999987E+00   6.8418430000000008E+00 Mg   0.0000000000000000E+00   0.0000000000000000E+00  -7.7739999999999997E-03  -1.0486000000000001E-02   1.7000000000000001E-04
atom   3.0946740000000017E+00   8.5588770000000007E+00   2.4680819999999994E+00 Mg   0.0000000000000000E+00   0.0000000000000000E+00   4.8019999999999998E-03   5.7900000000000000E-03  -1.5723000000000001E-02
atom   5.9937570000000004E+00   6.5944669999999999E+00   6.6328700000000005E+00 Mg   0.0000000000000000E+00   0.0000000000000000E+00   1.1381000000000000E-02   1.3500000000000001E-03   1.6056000000000001E-02
atom  -2.9375709999999984E+00   8.6523410000000016E+00   9.9747799999999909E-01 Mg   0.0000000000000000E+00   0.0000000000000000E+00   3.2669999999999999E-03   1.4549999999999999E-03   5.4840000000000002E-03
atom  -4.5441999999999982E-01   6.0390150000000009E+00   6.2731329999999987E+00 Mg   0.0000000000000000E+00   0.0000000000000000E+00  -3.3210000000000002E-03   3.0760000000000002E-03   5.2769999999999996E-03
atom   3.0675840000000023E+00   8.2506330000000023E+00   2.2353070000000002E+00 Mg   0.0000000000000000E+00   0.0000000000000000E+00   2.7020000000000000E-03   1.5020000000000001E-03   6.2399999999999999E-04
atom   6.2893330000000010E+00   6.3932240000000018E+00   7.3262560000000017E+00 Mg   0.0000000000000000E+00   0.0000000000000000E+00  -7.6860000000000001E-03  -2.1589999999999999E-03  -1.8422000000000001E-02
energy  -5.6174112000000001E+01
charge   0.0000000000000000E+00
end
begin
comment  i =    10240, time =     5120.000, E =       -56.2358662986
lattice   1.2997221000000000E+01   0.0000000000000000E+00   0.0000000000000000E+00
lattice  -6.4986110000000004E+00   1.1255924000000000E+01   0.0000000000000000E+00
lattice   0.0000000000000000E+00   0.0000000000000000E+00   1.0437177000000000E+01
atom  -3.6033200000000021E-01   3.2911809999999999E+00   2.4582229999999994E+00 Mg   0.0000000000000000E+00   0.0000000000000000E+00   3.3720000000000000E-03   3.7369999999999999E-03   6.0800000000000003E-04
atom   3.0722969999999998E+00   1.4694130000000001E+00   7.4996139999999993E+00 Mg   0.0000000000000000E+00   0.0000000000000000E+00   7.0619999999999997E-03   5.4900000000000001E-03   1.7710000000000000E-03
atom   5.5807479999999989E+00   3.8234659999999998E+00   2.6619539999999997E+00 Mg   0.0000000000000000E+00   0.0000000000000000E+00   3.7800000000000003E-04  -2.7799999999999998E-04  -8.0000000000000007E-05
atom   9.1004999999999985E+00   2.3637450000000002E+00   6.8006949999999993E+00 Mg   0.0000000000000000E+00   0.0000000000000000E+00   1.5410000000000001E-03  -2.0760000000000002E-03   6.1960000000000001E-03
atom  -6.9929600000000236E-01   3.5779289999999997E+00   2.1998209999999996E+00 Mg   0.0000000000000000E+00   0.0000000000000000E+00  -3.0430000000000001E-03  -1.3040000000000000E-03   1.0800000000000000E-03
atom   2.5539839999999980E+00   1.8983900000000000E+00   7.2394849999999993E+00 Mg   0.0000000000000000E+00   0.0000000000000000E+00  -7.1339999999999997E-03  -2.2640000000000000E-03   8.2539999999999992E-03
atom   5.3555439999999992E+00   3.4948419999999993E+00   3.0803629999999997E+00 Mg   0.0000000000000000E+00   0.0000000000000000E+00   5.6189999999999999E-03  -1.0690000000000001E-03  -9.2189999999999998E-03
atom   9.1511589999999980E+00   1.3557159999999999E+00   7.7436899999999991E+00 Mg   0.0000000000000000E+00   0.0000000000000000E+00  -9.0220000000000005E-03  -7.7099999999999998E-04  -3.7880000000000001E-03
atom  -3.0630340000000005E+00   8.6225170000000002E+00   2.9377189999999995E+00 Mg   0.0000000000000000E+00   0.0000000000000000E+00  -1.0039999999999999E-03   2.9499999999999999E-03  -2.6140000000000000E-03
atom   6.6284199999999993E-01   7.2063809999999995E+00   7.7698659999999995E+00 Mg   0.0000000000000000E+00   0.0000000000000000E+00  -1.3679999999999999E-02  -6.0299999999999998E-03  -8.5590000000000006E-03
atom   2.9006429999999988E+00   9.1371459999999978E+00   2.3760239999999997E+00 Mg   0.0000000000000000E+00   0.0000000000000000E+00  -1.9319999999999999E-03   1.4040000000000001E-03   5.8050000000000003E-03
atom   5.9586299999999985E+00   8.0746219999999997E+00   7.6003859999999994E+00 Mg   0.0000000000000000E+00   0.0000000000000000E+00   1.5443000000000000E-02  -6.4159999999999998E-03  -4.0569999999999998E-03
atom  -3.5826630000000019E+00   8.6315770000000001E+00   2.9213169999999997E+00 Mg   0.0000000000000000E+00   0.0000000000000000E+00  -3.6099999999999999E-03   4.6870000000000002E-03  -4.7479999999999996E-03
atom  -9.4915700000000169E-01   7.6462750000000002E+00   7.7768949999999988E+00 Mg   0.0000000000000000E+00   0.0000000000000000E+00   2.8000000000000000E-03  -4.6499999999999996E-03  -8.0249999999999991E-03
atom   2.3417729999999972E+00   8.6790500000000002E+00   2.0870539999999997E+00 Mg   0.0000000000000000E+00   0.0000000000000000E+00  -3.9899999999999996E-03   5.8910000000000004E-03   7.7619999999999998E-03
atom   5.9205909999999999E+00   6.8118090000000002E+00   7.9126429999999992E+00 Mg   0.0000000000000000E+00   0.0000000000000000E+00   1.1900000000000001E-04  -1.4700000000000000E-04  -5.9639999999999997E-03
atom   3.0270299999999939E-01   2.9974889999999990E+00   2.0390249999999996E+00 Mg   0.0000000000000000E+00   0.0000000000000000E+00  -3.5300000000000002E-04  -2.4800000000000000E-03   3.0249999999999999E-03
atom   3.5725420000000003E+00   7.9856399999999716E-01   7.6357070000000000E+00 Mg   0.0000000000000000E+00   0.0000000000000000E+00   6.3500000000000004E-04   2.7959999999999999E-03  -8.9250000000000006E-03
atom   6.2607269999999984E+00   3.1454449999999992E+00   2.7901939999999996E+00 Mg   0.0000000000000000E+00   0.0000000000000000E+00  -1.1000000000000001E-03  -2.8530000000000001E-03  -9.5969999999999996E-03
atom   9.8845909999999986E+00   1.7362099999999991E+00   7.2729939999999988E+00 Mg   0.0000000000000000E+00   0.0000000000000000E+00  -6.6480000000000003E-03   8.5099999999999998E-04  -2.0550000000000000E-03
atom  -6.1541200000000229E-01   3.0753480000000000E+00   2.0014189999999994E+00 Mg   0.0000000000000000E+00   0.0000000000000000E+00   4.7219999999999996E-03  -8.5229999999999993E-03   1.1065999999999999E-02
atom   2.9908049999999999E+00   1.8426629999999995E+00   7.1207119999999993E+00 Mg   0.0000000000000000E+00   0.0000000000000000E+00  -7.0860000000000003E-03  -7.1479999999999998E-03   2.3760000000000001E-03
atom   5.5849409999999997E+00   2.8090999999999986E+00   2.0318770000000002E+00 Mg   0.0000000000000000E+00   0.0000000000000000E+00   9.5119999999999996E-03   1.2480000000000000E-03   8.7729999999999995E-03
atom   9.0886599999999973E+00   6.3759900000000014E-01   7.1833859999999987E+00 Mg   0.0000000000000000E+00   0.0000000000000000E+00  -6.6699999999999995E-04   5.3460000000000001E-03  -7.2189999999999997E-03
atom  -2.8312460000000010E+00   8.3802939999999992E+00   2.5444879999999994E+00 Mg   0.0000000000000000E+00   0.0000000000000000E+00  -2.7420000000000001E-03  -5.0210000000000003E-03   1.6340000000000000E-03
atom   5.9220400000000029E-01   6.2878259999999973E+00   7.0849959999999994E+00 Mg   0.0000000000000000E+00   0.0000000000000000E+00  -2.3800000000000002E-03  -4.1040000000000000E-03   2.9499999999999999E-03
atom   3.0227909999999993E+00   8.4204799999999995E+00   2.4374539999999993E+00 Mg   0.0000000000000000E+00   0.0000000000000000E+00   6.3140000000000002E-03   1.6459999999999999E-03  -9.6100000000000005E-03
atom   6.4848079999999992E+00   6.8694119999999987E+00   7.0049589999999995E+00 Mg   0.0000000000000000E+00   0.0000000000000000E+00  -1.0700000000000000E-03   4.4299999999999998E-04   1.2777000000000000E-02
atom  -3.4537620000000002E+00   8.2576379999999983E+00   2.2895659999999998E+00 Mg   0.0000000000000000E+00   0.0000000000000000E+00  -6.9480000000000002E-03   2.6120000000000002E-03  -7.0100000000000002E-04
atom  -4.2162399999999983E-01   6.7865609999999981E+00   7.2079569999999995E+00 Mg   0.0000000000000000E+00   0.0000000000000000E+00   2.6120000000000002E-03  -1.4890000000000001E-03   7.4279999999999997E-03
atom   2.4228799999999997E+00   7.8827609999999977E+00   2.5160179999999999E+00 Mg   0.0000000000000000E+00   0.0000000000000000E+00   7.1500000000000001E-03   6.4440000000000001E-03   5.3499999999999999E-04
atom   6.3357580000000002E+00   6.1098430000000006E+00   7.6655399999999991E+00 Mg   0.0000000000000000E+00   0.0000000000000000E+00   1.1150000000000001E-03   3.3999999999999998E-03   3.5509999999999999E-03
atom  -2.1753699999999995E-01   3.5141149999999994E+00   2.0024789999999979E+00 Mg   0.0000000000000000E+00   0.0000000000000000E+00   2.0470000000000002E-03   3.7369999999999999E-03   1.5759999999999999E-03
atom   3.0724779999999994E+00   1.7292989999999997E+00   6.9513649999999991E+00 Mg   0.0000000000000000E+00   0.0000000000000000E+00   7.6999999999999996E-04   1.2362000000000000E-02   3.0030000000000000E-03
atom   6.6540899999999992E+00   3.5935999999999999E+00   1.5674159999999970E+00 Mg   0.0000000000000000E+00   0.0000000000000000E+00  -5.9340000000000000E-03  -1.9200000000000000E-04   2.1489999999999999E-03
atom   9.2708060000000003E+00   1.8482439999999998E+00   6.5006529999999998E+00 Mg   0.0000000000000000E+00   0.0000000000000000E+00  -5.2240000000000003E-03  -8.4700000000000001E-03   1.5870000000000001E-03
atom  -6.1795800000000090E-01   3.6675549999999997E+00   1.3123169999999986E+00 Mg   0.0000000000000000E+00   0.0000000000000000E+00  -5.5999999999999999E-05  -1.2222999999999999E-02   2.1289999999999998E-03
atom   2.2021399999999978E+00   1.9122489999999999E+00   7.0335129999999992E+00 Mg   0.0000000000000000E+00   0.0000000000000000E+00   8.5899999999999995E-04  -7.8799999999999999E-03  -6.3590000000000001E-03
atom   5.3929389999999993E+00   3.4168129999999994E+00   2.0118319999999987E+00 Mg   0.0000000000000000E+00   0.0000000000000000E+00  -3.8200000000000002E-04  -7.3010000000000002E-03   3.6900000000000002E-04
atom   8.0052809999999965E+00   2.4119709999999994E+00   6.8869189999999989E+00 Mg   0.0000000000000000E+00   0.0000000000000000E+00   1.4265000000000000E-02  -2.0065000000000000E-02   1.7309999999999999E-03
atom  -3.2466350000000004E+00   8.8361280000000004E+00   2.3157609999999984E+00 Mg   0.0000000000000000E+00   0.0000000000000000E+00   2.9009999999999999E-03  -8.5419999999999992E-03  -6.4200000000000004E-03
atom  -6.8195000000000339E-02   7.4999989999999999E+00   6.7230789999999976E+00 Mg   0.0000000000000000E+00   0.0000000000000000E+00   3.7200000000000002E-03  -5.7889999999999999E-03   6.1240000000000001E-03
atom   3.3743079999999988E+00   8.2423240000000000E+00   2.0037589999999983E+00 Mg   0.0000000000000000E+00   0.0000000000000000E+00  -2.2309999999999999E-03   8.3479999999999995E-03   1.2156000000000000E-02
atom   6.2772529999999982E+00   7.1938329999999997E+00   7.4360279999999959E+00 Mg   0.0000000000000000E+00   0.0000000000000000E+00   5.5500000000000005E-04   1.5499999999999999E-03  -8.7290000000000006E-03
atom  -3.6163040000000013E+00   9.1102849999999993E+00   2.1054359999999974E+00 Mg   0.0000000000000000E+00   0.0000000000000000E+00  -6.6899999999999998E-03  -3.5780000000000000E-03  -1.5280000000000001E-03
atom  -9.8388000000000209E-01   6.5643329999999995E+00   6.1914799999999985E+00 Mg   0.0000000000000000E+00   0.0000000000000000E+00   6.2670000000000000E-03   1.0872000000000000E-02   1.2813000000000000E-02
atom   2.6098799999999986E+00   8.2493540000000003E+00   2.0025659999999976E+00 Mg   0.0000000000000000E+00   0.0000000000000000E+00  -4.5789999999999997E-03   8.8970000000000004E-03   7.3800000000000005E-04
atom   5.3427949999999989E+00   6.6743209999999999E+00   7.3571369999999980E+00 Mg   0.0000000000000000E+00   0.0000000000000000E+00  -4.1660000000000004E-03   1.9119000000000001E-02  -5.2030000000000002E-03
atom   1.1484599999999946E-01   2.4277939999999996E+00   1.4316589999999993E+00 Mg   0.0000000000000000E+00   0.0000000000000000E+00   2.3300000000000000E-03   1.0525000000000000E-02  -8.8599999999999996E-04
atom   3.3027210000000005E+00   1.1433839999999973E+00   6.4018290000000002E+00 Mg   0.0000000000000000E+00   0.0000000000000000E+00   8.1030000000000008E-03   7.1130000000000004E-03   1.4034000000000000E-02
atom   6.3120920000000007E+00   2.4469279999999975E+00   1.6249979999999993E+00 Mg   0.0000000000000000E+00   0.0000000000000000E+00   7.6270000000000001E-03   6.5669999999999999E-03   2.7940000000000000E-03
atom   9.6539959999999994E+00   1.4111579999999990E+00   6.7988249999999972E+00 Mg   0.0000000000000000E+00   0.0000000000000000E+00  -5.7530000000000003E-03  -7.4799999999999997E-03  -5.6720000000000000E-03
atom  -2.7328100000000005E-01   2.5983419999999993E+00   1.7651609999999975E+00 Mg   0.0000000000000000E+00   0.0000000000000000E+00  -7.1400000000000001E-04   5.5099999999999995E-04  -2.1140000000000000E-03
atom   3.2232119999999997E+00   1.4472889999999980E+00   6.6875689999999972E+00 Mg   0.0000000000000000E+00   0.0000000000000000E+00  -1.0688000000000000E-02  -8.4609999999999998E-03   2.8999999999999998E-03
atom   6.0125899999999985E+00   2.5571009999999985E+00   2.1883619999999993E+00 Mg   0.0000000000000000E+00   0.0000000000000000E+00   1.7610000000000000E-03   9.2399999999999999E-03  -1.3023000000000000E-02
atom   9.4980330000000013E+00   1.1230599999999995E+00   6.3771849999999963E+00 Mg   0.0000000000000000E+00   0.0000000000000000E+00  -1.2430000000000000E-02  -7.1510000000000002E-03   7.5490000000000002E-03
atom  -2.9712820000000004E+00   8.7043159999999968E+00   2.4024119999999978E+00 Mg   0.0000000000000000E+00   0.0000000000000000E+00  -5.8699999999999996E-04  -9.8189999999999996E-03  -1.2387000000000000E-02
atom  -1.3410999999999068E-02   6.5769069999999967E+00   6.7076549999999999E+00 Mg   0.0000000000000000E+00   0.0000000000000000E+00   7.3709999999999999E-03  -1.3050000000000000E-03   2.6359999999999999E-03
atom   2.9609969999999999E+00   7.8704169999999980E+00   1.5942879999999990E+00 Mg   0.0000000000000000E+00   0.0000000000000000E+00   5.7920000000000003E-03   3.7799999999999999E-03  -1.8940000000000001E-03
atom   6.3714959999999987E+00   6.5676499999999995E+00   6.2972909999999969E+00 Mg   0.0000000000000000E+00   0.0000000000000000E+00  -3.1120000000000002E-03  -4.0700000000000003E-04   1.0440000000000000E-02
atom  -3.1942029999999995E+00   7.8909219999999971E+00   1.9757489999999998E+00 Mg   0.0000000000000000E+00   0.0000000000000000E+00  -9.0469999999999995E-03   3.4629999999999999E-03  -7.4219999999999998E-03
atom  -6.2143099999999918E-01   6.3744409999999991E+00   6.9437399999999991E+00 Mg   0.0000000000000000E+00   0.0000000000000000E+00   2.1090000000000002E-03   6.4170000000000000E-03  -2.8330000000000000E-03
atom   2.4073319999999985E+00   7.8938829999999980E+00   2.5755239999999979E+00 Mg   0.0000000000000000E+00   0.0000000000000000E+00   9.1120000000000003E-03   5.1229999999999999E-03  -1.1993999999999999E-02
atom   5.6227629999999982E+00   6.8503730000000003E+00   7.0939459999999999E+00 Mg   0.0000000000000000E+00   0.0000000000000000E+00   2.4000000000000001E-05  -1.3190000000000001E-03   1.3040000000000000E-03
energy  -5.6235866000000001E+01
charge   0.0000000000000000E+00
end
begin
comment  i =       50, time =       25.000, E =       -56.1799039069
lattice   1.2863867000000001E+01   0.0000000000000000E+00   0.0000000000000000E+00
lattice  -6.4319340000000000E+00   1.1140435999999999E+01   0.0000000000000000E+00
lattice   0.0000000000000000E+00   0.0000000000000000E+00   1.0330088999999999E+01
atom  -2.8628899999999985E-01   3.3955099999999994E+00   2.6222789999999998E+00 Mg   0.0000000000000000E+00   0.0000000000000000E+00   8.0429999999999998E-03   3.3549999999999999E-03  -3.0010000000000002E-03
atom   2.8933700000000000E+00   1.5710400000000000E+00   7.2457409999999998E+00 Mg   0.0000000000000000E+00   0.0000000000000000E+00  -2.1570000000000001E-03   6.4599999999999998E-04   1.2818000000000000E-02
atom   5.8549999999999995E+00   3.1783380000000001E+00   3.0761669999999999E+00 Mg   0.0000000000000000E+00   0.0000000000000000E+00   1.1420000000000000E-03   9.7630000000000008E-03  -1.5764000000000000E-02
atom   8.6904520000000005E+00   1.9868230000000000E+00   7.8997580000000012E+00 Mg   0.0000000000000000E+00   0.0000000000000000E+00   2.1222999999999999E-02  -2.1840000000000002E-03  -2.8849000000000000E-02
atom  -9.5057600000000275E-01   3.5639649999999996E+00   2.6585650000000003E+00 Mg   0.0000000000000000E+00   0.0000000000000000E+00   3.4090000000000001E-03  -5.1729999999999996E-03  -1.5730000000000000E-03
atom   2.0938450000000004E+00   2.1707450000000001E+00   7.2845800000000009E+00 Mg   0.0000000000000000E+00   0.0000000000000000E+00   2.3180000000000002E-03  -9.1950000000000000E-03  -9.6609999999999994E-03
atom   5.1456229999999987E+00   3.7818429999999998E+00   1.9658290000000000E+00 Mg   0.0000000000000000E+00   0.0000000000000000E+00   3.7290000000000001E-03  -1.1030000000000000E-03   1.2763999999999999E-02
atom   8.0114890000000010E+00   1.4843079999999997E+00   6.9507010000000005E+00 Mg   0.0000000000000000E+00   0.0000000000000000E+00  -1.6140000000000000E-03   3.9509999999999997E-03   4.4429999999999999E-03
atom  -2.6884420000000002E+00   8.4745069999999991E+00   2.3883770000000002E+00 Mg   0.0000000000000000E+00   0.0000000000000000E+00  -6.6900000000000000E-04   1.0425000000000000E-02   2.3999999999999998E-03
atom   6.6895499999999986E-01   6.7973679999999996E+00   7.1968900000000007E+00 Mg   0.0000000000000000E+00   0.0000000000000000E+00  -1.5075000000000000E-02   6.2059999999999997E-03   3.3779999999999999E-03